
.Version 8.4.1 of ABINIT 
.(sequential version, prepared for a x86_64_linux_gnu7.0 computer) 

.Copyright (C) 1998-2017 ABINIT group . 
 ABINIT comes with ABSOLUTELY NO WARRANTY.
 It is free software, and you are welcome to redistribute it
 under certain conditions (GNU General Public License,
 see ~abinit/COPYING or http://www.gnu.org/copyleft/gpl.txt).

 ABINIT is a project of the Universite Catholique de Louvain,
 Corning Inc. and other collaborators, see ~abinit/doc/developers/contributors.txt .
 Please read ~abinit/doc/users/acknowledgments.html for suggested
 acknowledgments of the ABINIT effort.
 For more information, see http://www.abinit.org .

.Starting date : Tue 15 Aug 2017.
- ( at 14h46 )
  
- input  file    -> agnr_3.in
- output file    -> agnr_3.out
- root for input  files -> agnr_3i
- root for output files -> agnr_3o


 Symmetries : space group Pm m 2 (# 25); Bravais oP (primitive ortho.)
================================================================================
 Values of the parameters that define the memory need of the present run
     intxc =       0    ionmov =       2      iscf =       7    lmnmax =       1
     lnmax =       1     mgfft =     432  mpssoang =       2    mqgrid =   20765
     natom =      28  nloc_mem =       1    nspden =       1   nspinor =       1
    nsppol =       1      nsym =       4    n1xccc =    2501    ntypat =       1
    occopt =       1   xclevel =       1
-    mband =          60        mffmem =           1         mkmem =           9
       mpw =      191372          nfft =     3110400          nkpt =           9
================================================================================
P This job should need less than                    2513.420 Mbytes of memory.
  Rough estimation (10% accuracy) of disk space for files :
_ WF disk file :   1576.859 Mbytes ; DEN or POT disk file :     23.732 Mbytes.
================================================================================

--------------------------------------------------------------------------------
------------- Echo of variables that govern the present computation ------------
--------------------------------------------------------------------------------
-
- outvars: echo of selected default values                                      
-   iomode0 =  0 , fftalg0 =112 , wfoptalg0 =  0
-
- outvars: echo of global parameters not present in the input file              
-  max_nthreads =    0
-
 -outvars: echo values of preprocessed input variables --------
            acell      8.0502333261E+00  1.0582466344E+02  5.6691783987E+01 Bohr
              amu      1.20110000E+01
           diemac      1.00000000E+01
             ecut      1.90000000E+01 Hartree
-          fftalg         112
           getden          -1
           ionmov           2
           istwfk        2    0    0    0    0    0    0    0    3
              kpt      0.00000000E+00  0.00000000E+00  0.00000000E+00
                       6.25000000E-02  0.00000000E+00  0.00000000E+00
                       1.25000000E-01  0.00000000E+00  0.00000000E+00
                       1.87500000E-01  0.00000000E+00  0.00000000E+00
                       2.50000000E-01  0.00000000E+00  0.00000000E+00
                       3.12500000E-01  0.00000000E+00  0.00000000E+00
                       3.75000000E-01  0.00000000E+00  0.00000000E+00
                       4.37500000E-01  0.00000000E+00  0.00000000E+00
                       5.00000000E-01  0.00000000E+00  0.00000000E+00
         kptrlatt       16    0    0      0    1    0      0    0    1
          kptrlen      1.28803733E+02
P           mkmem           9
            natom          28
            nband          60
            ngfft          32     432     225
             nkpt           9
            nstep          10
             nsym           4
            ntime          10
           ntypat           1
              occ      2.000000  2.000000  2.000000  2.000000  2.000000  2.000000
                       2.000000  2.000000  2.000000  2.000000  2.000000  2.000000
                       2.000000  2.000000  2.000000  2.000000  2.000000  2.000000
                       2.000000  2.000000  2.000000  2.000000  2.000000  2.000000
                       2.000000  2.000000  2.000000  2.000000  2.000000  2.000000
                       2.000000  2.000000  2.000000  2.000000  2.000000  2.000000
                       2.000000  2.000000  2.000000  2.000000  2.000000  2.000000
                       2.000000  2.000000  2.000000  2.000000  2.000000  2.000000
                       2.000000  2.000000  2.000000  2.000000  2.000000  2.000000
                       2.000000  2.000000  0.000000  0.000000  0.000000  0.000000
          spgroup          25
           symrel      1  0  0   0  1  0   0  0  1      -1  0  0   0  1  0   0  0 -1
                       1  0  0   0  1  0   0  0 -1      -1  0  0   0  1  0   0  0  1
            tnons      0.0000000  0.0000000  0.0000000     0.3333333  0.0000000  0.0000000
                       0.0000000  0.0000000  0.0000000     0.3333333  0.0000000  0.0000000
           toldfe      1.00000000E-06 Hartree
           tolmxf      5.00000000E-04
            typat      1  1  1  1  1  1  1  1  1  1  1  1  1  1  1  1  1  1  1  1
                       1  1  1  1  1  1  1  1
              wtk        0.06250    0.12500    0.12500    0.12500    0.12500    0.12500
                         0.12500    0.12500    0.06250
           xangst      0.0000000000E+00  0.0000000000E+00  0.0000000000E+00
                       2.1300000000E+00  1.2297600000E+00  0.0000000000E+00
                       0.0000000000E+00  2.4595100000E+00  0.0000000000E+00
                       2.1300000000E+00  3.6892700000E+00  0.0000000000E+00
                       0.0000000000E+00  4.9190200000E+00  0.0000000000E+00
                       2.1300000000E+00  6.1487800000E+00  0.0000000000E+00
                       0.0000000000E+00  7.3785400000E+00  0.0000000000E+00
                       2.1300000000E+00  8.6082900000E+00  0.0000000000E+00
                       0.0000000000E+00  9.8380500000E+00  0.0000000000E+00
                       2.1300000000E+00  1.1067800000E+01  0.0000000000E+00
                       0.0000000000E+00  1.2297560000E+01  0.0000000000E+00
                       2.1300000000E+00  1.3527320000E+01  0.0000000000E+00
                       0.0000000000E+00  1.4757070000E+01  0.0000000000E+00
                       2.1300000000E+00  1.5986830000E+01  0.0000000000E+00
                       1.4200000000E+00  0.0000000000E+00  0.0000000000E+00
                      -7.1000000000E-01  1.2297600000E+00  0.0000000000E+00
                       1.4200000000E+00  2.4595100000E+00  0.0000000000E+00
                      -7.1000000000E-01  3.6892700000E+00  0.0000000000E+00
                       1.4200000000E+00  4.9190200000E+00  0.0000000000E+00
                      -7.1000000000E-01  6.1487800000E+00  0.0000000000E+00
                       1.4200000000E+00  7.3785400000E+00  0.0000000000E+00
                      -7.1000000000E-01  8.6082900000E+00  0.0000000000E+00
                       1.4200000000E+00  9.8380500000E+00  0.0000000000E+00
                      -7.1000000000E-01  1.1067800000E+01  0.0000000000E+00
                       1.4200000000E+00  1.2297560000E+01  0.0000000000E+00
                      -7.1000000000E-01  1.3527320000E+01  0.0000000000E+00
                       1.4200000000E+00  1.4757070000E+01  0.0000000000E+00
                      -7.1000000000E-01  1.5986830000E+01  0.0000000000E+00
            xcart      0.0000000000E+00  0.0000000000E+00  0.0000000000E+00
                       4.0251166630E+00  2.3239096092E+00  0.0000000000E+00
                       0.0000000000E+00  4.6478003211E+00  0.0000000000E+00
                       4.0251166630E+00  6.9717099303E+00  0.0000000000E+00
                       0.0000000000E+00  9.2956006422E+00  0.0000000000E+00
                       4.0251166630E+00  1.1619510251E+01  0.0000000000E+00
                       0.0000000000E+00  1.3943419861E+01  0.0000000000E+00
                       4.0251166630E+00  1.6267310572E+01  0.0000000000E+00
                       0.0000000000E+00  1.8591220182E+01  0.0000000000E+00
                       4.0251166630E+00  2.0915110894E+01  0.0000000000E+00
                       0.0000000000E+00  2.3239020503E+01  0.0000000000E+00
                       4.0251166630E+00  2.5562930112E+01  0.0000000000E+00
                       0.0000000000E+00  2.7886820824E+01  0.0000000000E+00
                       4.0251166630E+00  3.0210730433E+01  0.0000000000E+00
                       2.6834111087E+00  0.0000000000E+00  0.0000000000E+00
                      -1.3417055543E+00  2.3239096092E+00  0.0000000000E+00
                       2.6834111087E+00  4.6478003211E+00  0.0000000000E+00
                      -1.3417055543E+00  6.9717099303E+00  0.0000000000E+00
                       2.6834111087E+00  9.2956006422E+00  0.0000000000E+00
                      -1.3417055543E+00  1.1619510251E+01  0.0000000000E+00
                       2.6834111087E+00  1.3943419861E+01  0.0000000000E+00
                      -1.3417055543E+00  1.6267310572E+01  0.0000000000E+00
                       2.6834111087E+00  1.8591220182E+01  0.0000000000E+00
                      -1.3417055543E+00  2.0915110894E+01  0.0000000000E+00
                       2.6834111087E+00  2.3239020503E+01  0.0000000000E+00
                      -1.3417055543E+00  2.5562930112E+01  0.0000000000E+00
                       2.6834111087E+00  2.7886820824E+01  0.0000000000E+00
                      -1.3417055543E+00  3.0210730433E+01  0.0000000000E+00
             xred      0.0000000000E+00  0.0000000000E+00  0.0000000000E+00
                       5.0000000000E-01  2.1960000000E-02  0.0000000000E+00
                       0.0000000000E+00  4.3919821429E-02  0.0000000000E+00
                       5.0000000000E-01  6.5879821429E-02  0.0000000000E+00
                       0.0000000000E+00  8.7839642857E-02  0.0000000000E+00
                       5.0000000000E-01  1.0979964286E-01  0.0000000000E+00
                       0.0000000000E+00  1.3175964286E-01  0.0000000000E+00
                       5.0000000000E-01  1.5371946429E-01  0.0000000000E+00
                       0.0000000000E+00  1.7567946429E-01  0.0000000000E+00
                       5.0000000000E-01  1.9763928571E-01  0.0000000000E+00
                       0.0000000000E+00  2.1959928571E-01  0.0000000000E+00
                       5.0000000000E-01  2.4155928571E-01  0.0000000000E+00
                       0.0000000000E+00  2.6351910714E-01  0.0000000000E+00
                       5.0000000000E-01  2.8547910714E-01  0.0000000000E+00
                       3.3333333333E-01  0.0000000000E+00  0.0000000000E+00
                      -1.6666666667E-01  2.1960000000E-02  0.0000000000E+00
                       3.3333333333E-01  4.3919821429E-02  0.0000000000E+00
                      -1.6666666667E-01  6.5879821429E-02  0.0000000000E+00
                       3.3333333333E-01  8.7839642857E-02  0.0000000000E+00
                      -1.6666666667E-01  1.0979964286E-01  0.0000000000E+00
                       3.3333333333E-01  1.3175964286E-01  0.0000000000E+00
                      -1.6666666667E-01  1.5371946429E-01  0.0000000000E+00
                       3.3333333333E-01  1.7567946429E-01  0.0000000000E+00
                      -1.6666666667E-01  1.9763928571E-01  0.0000000000E+00
                       3.3333333333E-01  2.1959928571E-01  0.0000000000E+00
                      -1.6666666667E-01  2.4155928571E-01  0.0000000000E+00
                       3.3333333333E-01  2.6351910714E-01  0.0000000000E+00
                      -1.6666666667E-01  2.8547910714E-01  0.0000000000E+00
            znucl        6.00000

================================================================================

 chkinp: Checking input parameters for consistency.

================================================================================
== DATASET  1 ==================================================================
-   nproc =    1

 Exchange-correlation functional for the present dataset will be:
  LDA: new Teter (4/93) with spin-polarized option - ixc=1
 Citation for XC functional:
  S. Goedecker, M. Teter, J. Huetter, PRB 54, 1703 (1996)

 Real(R)+Recip(G) space primitive vectors, cartesian coordinates (Bohr,Bohr^-1):
 R(1)=  8.0502333  0.0000000  0.0000000  G(1)=  0.1242200  0.0000000  0.0000000
 R(2)=  0.0000000105.8246634  0.0000000  G(2)=  0.0000000  0.0094496  0.0000000
 R(3)=  0.0000000  0.0000000 56.6917840  G(3)=  0.0000000  0.0000000  0.0176392
 Unit cell volume ucvol=  4.8296481E+04 bohr^3
 Angles (23,13,12)=  9.00000000E+01  9.00000000E+01  9.00000000E+01 degrees

 getcut: wavevector=  0.0000  0.0000  0.0000  ngfft=  32 432 225
         ecut(hartree)=     19.000   => boxcut(ratio)=   2.01366

--- Pseudopotential description ------------------------------------------------
- pspini: atom type   1  psp file is ./6c.pspnc
- pspatm: opening atomic psp file    ./6c.pspnc
-  Troullier-Martins psp for element  C         Thu Oct 27 17:29:33 EDT 1994
-  6.00000   4.00000    940714                znucl, zion, pspdat
    1    1    1    1      2001   0.00000      pspcod,pspxc,lmax,lloc,mmax,r2well
    0  10.372  24.987    1   1.4850707        l,e99.0,e99.9,nproj,rcpsp
   0.00000000   0.00000000   0.00000000   0.00000000     rms, ekb1, ekb2, epsatm
    1  15.431  21.987    0   1.4850707        l,e99.0,e99.9,nproj,rcpsp
   0.00000000   0.00000000   0.00000000   0.00000000     rms, ekb1, ekb2, epsatm
    0.83985002509544    0.99012430797080    0.51184907750884   rchrg,fchrg,qchrg
 pspatm: epsatm=    0.92590353
         --- l  ekb(1:nproj) -->
             0    4.921466
 pspatm: atomic psp has been read  and splines computed

   2.90363347E+03                                ecore*ucvol(ha*bohr**3)
--------------------------------------------------------------------------------

_setup2: Arith. and geom. avg. npw (full set) are  191051.063  191050.872

================================================================================

=== [ionmov= 2] Broyden-Fletcher-Goldfard-Shanno method (forces)            
================================================================================

--- Iteration: ( 1/10) Internal Cycle: (1/1)
--------------------------------------------------------------------------------

---SELF-CONSISTENT-FIELD CONVERGENCE--------------------------------------------

     iter   Etot(hartree)      deltaE(h)  residm     vres2
 ETOT  1  -115.43176188594    -1.154E+02 1.112E-01 1.021E+07
 ETOT  2  -148.14398590733    -3.271E+01 1.068E-01 1.257E+06
 ETOT  3  -164.09592711963    -1.595E+01 2.531E-01 8.709E+04
 ETOT  4  -167.54734734679    -3.451E+00 1.210E-01 6.599E+04
 ETOT  5  -168.10509376759    -5.577E-01 5.398E-02 8.105E+04
 ETOT  6  -168.22905777375    -1.240E-01 4.323E-02 6.472E+04
 ETOT  7  -168.25181190296    -2.275E-02 2.304E-02 5.204E+04
 ETOT  8  -168.27957657577    -2.776E-02 2.459E-03 3.917E+04
 ETOT  9  -168.29141172853    -1.184E-02 1.041E-03 3.080E+04
 ETOT 10  -168.32039477317    -2.898E-02 1.479E-03 7.089E+02

 Cartesian components of stress tensor (hartree/bohr^3)
  sigma(1 1)=  4.07880120E-05  sigma(3 2)=  0.00000000E+00
  sigma(2 2)=  3.48436334E-05  sigma(3 1)=  0.00000000E+00
  sigma(3 3)=  2.45661959E-05  sigma(2 1)=  0.00000000E+00


 scprqt:  WARNING -
  nstep=   10 was not enough SCF cycles to converge;
  maximum energy difference=  2.898E-02 exceeds toldfe=  1.000E-06

 Integrated electronic density in atomic spheres:
 ------------------------------------------------
 Atom  Sphere_radius  Integrated_density
    1        2.00000          4.11103807
    2        2.00000          4.67798022
    3        2.00000          4.78539528
    4        2.00000          4.75054352
    5        2.00000          4.74260674
    6        2.00000          4.74329121
    7        2.00000          4.78265093
    8        2.00000          4.75587077
    9        2.00000          4.77910682
   10        2.00000          4.74321779
   11        2.00000          4.76480137
   12        2.00000          4.74351239
   13        2.00000          4.74532378
   14        2.00000          4.10836998
   15        2.00000          4.13182159
   16        2.00000          4.74390511
   17        2.00000          4.80225275
   18        2.00000          4.79835559
   19        2.00000          4.77353870
   20        2.00000          4.81635385
   21        2.00000          4.80807227
   22        2.00000          4.82685837
   23        2.00000          4.80571480
   24        2.00000          4.81412421
   25        2.00000          4.77854172
   26        2.00000          4.80471279
   27        2.00000          4.76365440
   28        2.00000          4.14357371

---OUTPUT-----------------------------------------------------------------------

 Cartesian coordinates (xcart) [bohr]
  0.00000000000000E+00  0.00000000000000E+00  0.00000000000000E+00
  4.02511666304642E+00  2.32390960917745E+00  0.00000000000000E+00
  0.00000000000000E+00  4.64780032109357E+00  0.00000000000000E+00
  4.02511666304642E+00  6.97170993027102E+00  0.00000000000000E+00
  0.00000000000000E+00  9.29560064218714E+00  0.00000000000000E+00
  4.02511666304642E+00  1.16195102513646E+01  0.00000000000000E+00
  0.00000000000000E+00  1.39434198605420E+01  0.00000000000000E+00
  4.02511666304642E+00  1.62673105724582E+01  0.00000000000000E+00
  0.00000000000000E+00  1.85912201816356E+01  0.00000000000000E+00
  4.02511666304642E+00  2.09151108935517E+01  0.00000000000000E+00
  0.00000000000000E+00  2.32390205027292E+01  0.00000000000000E+00
  4.02511666304642E+00  2.55629301119066E+01  0.00000000000000E+00
  0.00000000000000E+00  2.78868208238227E+01  0.00000000000000E+00
  4.02511666304642E+00  3.02107304330002E+01  0.00000000000000E+00
  2.68341110869761E+00  0.00000000000000E+00  0.00000000000000E+00
 -1.34170555434881E+00  2.32390960917745E+00  0.00000000000000E+00
  2.68341110869761E+00  4.64780032109357E+00  0.00000000000000E+00
 -1.34170555434881E+00  6.97170993027102E+00  0.00000000000000E+00
  2.68341110869761E+00  9.29560064218714E+00  0.00000000000000E+00
 -1.34170555434881E+00  1.16195102513646E+01  0.00000000000000E+00
  2.68341110869761E+00  1.39434198605420E+01  0.00000000000000E+00
 -1.34170555434881E+00  1.62673105724582E+01  0.00000000000000E+00
  2.68341110869761E+00  1.85912201816356E+01  0.00000000000000E+00
 -1.34170555434881E+00  2.09151108935517E+01  0.00000000000000E+00
  2.68341110869761E+00  2.32390205027292E+01  0.00000000000000E+00
 -1.34170555434881E+00  2.55629301119066E+01  0.00000000000000E+00
  2.68341110869761E+00  2.78868208238227E+01  0.00000000000000E+00
 -1.34170555434881E+00  3.02107304330002E+01  0.00000000000000E+00
 Reduced coordinates (xred)
  0.00000000000000E+00  0.00000000000000E+00  0.00000000000000E+00
  5.00000000000000E-01  2.19600000000000E-02  0.00000000000000E+00
  0.00000000000000E+00  4.39198214285714E-02  0.00000000000000E+00
  5.00000000000000E-01  6.58798214285714E-02  0.00000000000000E+00
  0.00000000000000E+00  8.78396428571429E-02  0.00000000000000E+00
  5.00000000000000E-01  1.09799642857143E-01  0.00000000000000E+00
  0.00000000000000E+00  1.31759642857143E-01  0.00000000000000E+00
  5.00000000000000E-01  1.53719464285714E-01  0.00000000000000E+00
  0.00000000000000E+00  1.75679464285714E-01  0.00000000000000E+00
  5.00000000000000E-01  1.97639285714286E-01  0.00000000000000E+00
  0.00000000000000E+00  2.19599285714286E-01  0.00000000000000E+00
  5.00000000000000E-01  2.41559285714286E-01  0.00000000000000E+00
  0.00000000000000E+00  2.63519107142857E-01  0.00000000000000E+00
  5.00000000000000E-01  2.85479107142857E-01  0.00000000000000E+00
  3.33333333333333E-01  0.00000000000000E+00  0.00000000000000E+00
 -1.66666666666667E-01  2.19600000000000E-02  0.00000000000000E+00
  3.33333333333333E-01  4.39198214285714E-02  0.00000000000000E+00
 -1.66666666666667E-01  6.58798214285714E-02  0.00000000000000E+00
  3.33333333333333E-01  8.78396428571429E-02  0.00000000000000E+00
 -1.66666666666667E-01  1.09799642857143E-01  0.00000000000000E+00
  3.33333333333333E-01  1.31759642857143E-01  0.00000000000000E+00
 -1.66666666666667E-01  1.53719464285714E-01  0.00000000000000E+00
  3.33333333333333E-01  1.75679464285714E-01  0.00000000000000E+00
 -1.66666666666667E-01  1.97639285714286E-01  0.00000000000000E+00
  3.33333333333333E-01  2.19599285714286E-01  0.00000000000000E+00
 -1.66666666666667E-01  2.41559285714286E-01  0.00000000000000E+00
  3.33333333333333E-01  2.63519107142857E-01  0.00000000000000E+00
 -1.66666666666667E-01  2.85479107142857E-01  0.00000000000000E+00
 Cartesian forces (fcart) [Ha/bohr]; max,rms= 1.58216E-01 3.49969E-02 (free atoms)
  1.58216154325865E-01  2.34210732669211E-02  6.49781899101351E-30
  1.12854483327187E-02 -2.03088234682796E-02  6.49781899101351E-30
  1.54799302642742E-02 -3.86152321961836E-03  6.49781899101351E-30
  8.06885949373544E-03  2.26536870220172E-04  6.49781899101351E-30
  1.09909578429896E-03  1.67362390516983E-03 -2.09493351842208E-29
  7.17130318535686E-04  1.84720326037001E-04  6.49781899101351E-30
  2.41007465526265E-03  2.73924564937105E-05 -3.72034685728958E-29
  1.49415998840686E-03 -9.61170520468053E-05  6.49781899101351E-30
  6.13339650727804E-04  5.68704959641330E-04  6.49781899101351E-30
  1.80718993791913E-03 -1.64927559810849E-03  6.49781899101351E-30
  8.99451978668344E-03 -1.55247583960805E-03  6.49781899101351E-30
  1.36688497626684E-02  5.35262482463333E-03  6.49781899101351E-30
  1.07494326214061E-02  2.34363873675104E-02  6.49781899101351E-30
  1.52530297552159E-01 -2.74228487989656E-02  6.49781899101351E-30
 -1.58216154325865E-01  2.34210732669211E-02  6.49781899101351E-30
 -1.12854483327187E-02 -2.03088234682796E-02  9.23209822824217E-30
 -1.54799302642742E-02 -3.86152321961836E-03  6.49781899101351E-30
 -8.06885949373544E-03  2.26536870220172E-04  6.49781899101351E-30
 -1.09909578429896E-03  1.67362390516983E-03  6.49781899101351E-30
 -7.17130318535686E-04  1.84720326037001E-04 -1.58356068397855E-29
 -2.41007465526265E-03  2.73924564937105E-05  6.49781899101351E-30
 -1.49415998840686E-03 -9.61170520468053E-05  6.49781899101351E-30
 -6.13339650727804E-04  5.68704959641330E-04 -6.25201200250382E-29
 -1.80718993791913E-03 -1.64927559810849E-03  6.49781899101351E-30
 -8.99451978668344E-03 -1.55247583960805E-03  6.49781899101351E-30
 -1.36688497626684E-02  5.35262482463333E-03  3.71140932490917E-29
 -1.07494326214061E-02  2.34363873675104E-02  6.49781899101351E-30
 -1.52530297552159E-01 -2.74228487989656E-02 -4.62918596666773E-29
 Reduced forces (fred)
 -1.27367695828032E+00 -2.47852719591289E+00 -3.68372950622366E-28
 -9.08504922679512E-02  2.14917440842547E+00 -3.68372950622366E-28
 -1.24617050499053E-01  4.08644395088021E-01 -3.68372950622366E-28
 -6.49562016000297E-02 -2.39731880481622E-02 -3.68372950622366E-28
 -8.84797751133163E-03 -1.77110686492407E-01  1.18765518492608E-27
 -5.77306638942755E-03 -1.95479663336875E-02 -3.68372950622366E-28
 -1.94016633081671E-02 -2.89879748928547E-03  2.10913100388573E-27
 -1.20283365331874E-02  1.01715546838515E-02 -3.68372950622366E-28
 -4.93752729650311E-03 -6.01830109516102E-02 -3.68372950622366E-28
 -1.45483006648162E-02  1.74534035092268E-01 -3.68372950622366E-28
 -7.24079829389605E-02  1.64290233227731E-01 -3.68372950622366E-28
 -1.10037429888789E-01 -5.66439720595954E-01 -3.68372950622366E-28
 -8.65354407254329E-02 -2.48014780545366E+00 -3.68372950622366E-28
 -1.22790448459324E+00  2.90201374476031E+00 -3.68372950622366E-28
  1.27367695828032E+00 -2.47852719591289E+00 -3.68372950622366E-28
  9.08504922679512E-02  2.14917440842547E+00 -5.23384118498294E-28
  1.24617050499053E-01  4.08644395088021E-01 -3.68372950622366E-28
  6.49562016000297E-02 -2.39731880481622E-02 -3.68372950622366E-28
  8.84797751133163E-03 -1.77110686492407E-01 -3.68372950622366E-28
  5.77306638942755E-03 -1.95479663336875E-02  8.97748802257358E-28
  1.94016633081671E-02 -2.89879748928547E-03 -3.68372950622366E-28
  1.20283365331874E-02  1.01715546838515E-02 -3.68372950622366E-28
  4.93752729650311E-03 -6.01830109516102E-02  3.54437713927385E-27
  1.45483006648162E-02  1.74534035092268E-01 -3.68372950622366E-28
  7.24079829389605E-02  1.64290233227731E-01 -3.68372950622366E-28
  1.10037429888789E-01 -5.66439720595954E-01 -2.10406415733490E-27
  8.65354407254329E-02 -2.48014780545366E+00 -3.68372950622366E-28
  1.22790448459324E+00  2.90201374476031E+00  2.62436810855985E-27
 Total energy (etotal) [Ha]= -1.68320394773171E+02

--- Iteration: ( 2/10) Internal Cycle: (1/1)
--------------------------------------------------------------------------------

---SELF-CONSISTENT-FIELD CONVERGENCE--------------------------------------------

     iter   Etot(hartree)      deltaE(h)  residm     vres2
 ETOT  1  -168.32105782069    -1.683E+02 1.742E-03 1.686E+03
 ETOT  2  -168.37432013089    -5.326E-02 5.739E-04 1.191E+02
 ETOT  3  -168.39384594671    -1.953E-02 3.502E-04 3.355E+01
 ETOT  4  -168.39567636838    -1.830E-03 1.348E-04 8.927E+00
 ETOT  5  -168.39577441588    -9.805E-05 1.251E-04 2.681E+00
 ETOT  6  -168.39580141149    -2.700E-05 1.326E-04 1.192E+00
 ETOT  7  -168.39580430033    -2.889E-06 1.210E-04 8.209E-01
 ETOT  8  -168.39580422389     7.644E-08 1.224E-04 3.476E-01
 ETOT  9  -168.39580479090    -5.670E-07 1.015E-04 1.402E-01

 At SCF step    9, etot is converged : 
  for the second time, diff in etot=  5.670E-07 < toldfe=  1.000E-06

 Cartesian components of stress tensor (hartree/bohr^3)
  sigma(1 1)=  2.66348905E-05  sigma(3 2)=  0.00000000E+00
  sigma(2 2)=  3.70822302E-05  sigma(3 1)=  0.00000000E+00
  sigma(3 3)=  2.29303946E-05  sigma(2 1)=  0.00000000E+00

 Integrated electronic density in atomic spheres:
 ------------------------------------------------
 Atom  Sphere_radius  Integrated_density
    1        2.00000          4.49003137
    2        2.00000          4.64580165
    3        2.00000          4.73494328
    4        2.00000          4.74789879
    5        2.00000          4.75902289
    6        2.00000          4.74359050
    7        2.00000          4.76624626
    8        2.00000          4.74781957
    9        2.00000          4.77300912
   10        2.00000          4.74882728
   11        2.00000          4.76947797
   12        2.00000          4.73027000
   13        2.00000          4.66011465
   14        2.00000          4.48609371
   15        2.00000          4.49223115
   16        2.00000          4.70388077
   17        2.00000          4.80148647
   18        2.00000          4.79541359
   19        2.00000          4.79232570
   20        2.00000          4.80987115
   21        2.00000          4.79986534
   22        2.00000          4.81852666
   23        2.00000          4.79701905
   24        2.00000          4.81394675
   25        2.00000          4.78673166
   26        2.00000          4.79252500
   27        2.00000          4.70139767
   28        2.00000          4.48342915

---OUTPUT-----------------------------------------------------------------------

 Cartesian coordinates (xcart) [bohr]
  1.58216154325865E-01  2.34210732669211E-02  6.49781899101351E-30
  4.03640211137914E+00  2.30360078570917E+00  6.49781899101351E-30
  1.54799302642742E-02  4.64393879787395E+00  6.49781899101351E-30
  4.03318552254016E+00  6.97193646714124E+00  6.49781899101351E-30
  1.09909578429896E-03  9.29727426609231E+00 -2.09493351842208E-29
  4.02583379336496E+00  1.16196949716906E+01  6.49781899101351E-30
  2.41007465526265E-03  1.39434472529985E+01 -3.72034685728958E-29
  4.02661082303483E+00  1.62672144554061E+01  6.49781899101351E-30
  6.13339650727805E-04  1.85917888865952E+01  6.49781899101351E-30
  4.02692385298434E+00  2.09134616179536E+01  6.49781899101351E-30
  8.99451978668344E-03  2.32374680268896E+01  6.49781899101351E-30
  4.03878551280909E+00  2.55682827367313E+01  6.49781899101351E-30
  1.07494326214061E-02  2.79102572111903E+01  6.49781899101351E-30
  4.17764696059858E+00  3.01833075842012E+01  6.49781899101351E-30
  2.52519495437175E+00  2.34210732669211E-02  6.49781899101351E-30
 -1.35299100268153E+00  2.30360078570917E+00  9.23209822824217E-30
  2.66793117843334E+00  4.64393879787395E+00  6.49781899101351E-30
 -1.34977441384254E+00  6.97193646714124E+00  6.49781899101351E-30
  2.68231201291331E+00  9.29727426609231E+00  6.49781899101351E-30
 -1.34242268466734E+00  1.16196949716906E+01 -1.58356068397855E-29
  2.68100103404235E+00  1.39434472529985E+01  6.49781899101351E-30
 -1.34319971433721E+00  1.62672144554061E+01  6.49781899101351E-30
  2.68279776904689E+00  1.85917888865952E+01 -6.25201200250382E-29
 -1.34351274428673E+00  2.09134616179536E+01  6.49781899101351E-30
  2.67441658891093E+00  2.32374680268896E+01  6.49781899101351E-30
 -1.35537440411147E+00  2.55682827367313E+01  3.71140932490917E-29
  2.67266167607621E+00  2.79102572111903E+01  6.49781899101351E-30
 -1.49423585190097E+00  3.01833075842012E+01 -4.62918596666773E-29
 Reduced coordinates (xred)
  1.96536110093910E-02  2.21319610242343E-04  1.14616590519587E-31
  5.01401878414647E-01  2.17680898837019E-02  1.14616590519587E-31
  1.92291696864236E-03  4.38833316057453E-02  1.14616590519587E-31
  5.01002313742582E-01  6.58819621097969E-02  1.14616590519587E-31
  1.36529680541869E-04  8.78554579218994E-02 -3.69530357153407E-31
  5.00089081929615E-01  1.09801388389045E-01  1.14616590519587E-31
  2.99379478536478E-04  1.31759901704708E-01 -6.56240921642360E-31
  5.00185604556773E-01  1.53718556018691E-01  1.14616590519587E-31
  7.61890526501655E-05  1.75684838316126E-01  1.14616590519587E-31
  5.00224489137732E-01  1.97623700731121E-01  1.14616590519587E-31
  1.11729926603865E-03  2.19584615449443E-01  1.14616590519587E-31
  5.01697944545081E-01  2.41609865840417E-01  1.14616590519587E-31
  1.33529454190657E-03  2.63740571465117E-01  1.14616590519587E-31
  5.18947313869496E-01  2.85219972382517E-01  1.14616590519587E-31
  3.13679722323942E-01  2.21319610242343E-04  1.14616590519587E-31
 -1.68068545081313E-01  2.17680898837019E-02  1.62847198994996E-31
  3.31410416364691E-01  4.38833316057453E-02  1.14616590519587E-31
 -1.67668980409249E-01  6.58819621097969E-02  1.14616590519587E-31
  3.33196803652791E-01  8.78554579218994E-02  1.14616590519587E-31
 -1.66755748596281E-01  1.09801388389045E-01 -2.79328074126880E-31
  3.33033953854797E-01  1.31759901704708E-01  1.14616590519587E-31
 -1.66852271223439E-01  1.53718556018691E-01  1.14616590519587E-31
  3.33257144280683E-01  1.75684838316126E-01 -1.10280741985205E-30
 -1.66891155804399E-01  1.97623700731121E-01  1.14616590519587E-31
  3.32216034067295E-01  2.19584615449443E-01  1.14616590519587E-31
 -1.68364611211748E-01  2.41609865840417E-01  6.54664408830110E-31
  3.31998038791427E-01  2.63740571465117E-01  1.14616590519587E-31
 -1.85613980536163E-01  2.85219972382517E-01 -8.16553235961743E-31
 Cartesian forces (fcart) [Ha/bohr]; max,rms= 3.35068E-02 1.03335E-02 (free atoms)
  1.80042126326923E-02  3.35067602158272E-02 -9.93921932834846E-34
  6.17837340555648E-03 -2.22432336844388E-02 -9.93921932834846E-34
 -9.55143744595871E-03 -6.66347593968820E-03 -9.93921932834846E-34
 -2.10787520642051E-03 -3.05400911866515E-03  2.68358921865409E-32
 -1.47735649201671E-04  5.33212240874066E-04 -9.93921932834846E-34
 -1.85577884838464E-03 -5.79755061247062E-04 -9.93921932834846E-34
 -4.80032232465219E-04 -7.47282419747239E-04 -9.93921932834846E-34
  2.38946153342622E-04  8.49896135016050E-04 -9.93921932834846E-34
 -1.78255038408422E-03  2.92456522705249E-04 -9.93921932834846E-34
 -6.87441751005998E-04 -5.07237072847249E-04 -9.93921932834846E-34
 -2.79907711011158E-03  3.83799416612840E-03 -9.93921932834846E-34
 -7.86259489535489E-03  6.13052515473450E-03 -9.93921932834846E-34
  6.79845617865304E-03  2.03888928046441E-02 -9.93921932834846E-34
  2.74657719783359E-02 -3.17447439432958E-02 -9.93921932834846E-34
 -1.80042126326923E-02  3.35067602158272E-02 -9.93921932834846E-34
 -6.17837340555648E-03 -2.22432336844388E-02 -9.93921932834846E-34
  9.55143744595871E-03 -6.66347593968820E-03 -9.93921932834846E-34
  2.10787520642051E-03 -3.05400911866515E-03 -9.93921932834846E-34
  1.47735649201671E-04  5.33212240874066E-04 -9.93921932834846E-34
  1.85577884838464E-03 -5.79755061247062E-04 -9.93921932834846E-34
  4.80032232465219E-04 -7.47282419747239E-04 -9.93921932834846E-34
 -2.38946153342621E-04  8.49896135016050E-04 -9.93921932834846E-34
  1.78255038408422E-03  2.92456522705249E-04 -9.93921932834846E-34
  6.87441751005999E-04 -5.07237072847249E-04 -9.93921932834846E-34
  2.79907711011158E-03  3.83799416612840E-03 -9.93921932834846E-34
  7.86259489535489E-03  6.13052515473450E-03 -9.93921932834846E-34
 -6.79845617865304E-03  2.03888928046441E-02 -9.93921932834846E-34
 -2.74657719783359E-02 -3.17447439432958E-02 -9.93921932834846E-34
 Reduced forces (fred)
 -1.44938112545762E-01 -3.54584162285817E+00  5.63472075157866E-32
 -4.97373474904565E-02  2.35388271850851E+00  5.63472075157866E-32
  7.68913000395479E-02  7.05160098668677E-01  5.63472075157866E-32
  1.69688872339712E-02  3.23189487130305E-01 -1.52137460292624E-30
  1.18930644665525E-03 -5.64270059334373E-02  5.63472075157866E-32
  1.49394527311242E-02  6.13523842350323E-02  5.63472075157866E-32
  3.86437147539025E-03  7.90809105655730E-02  5.63472075157866E-32
 -1.92357228678046E-03 -8.99399724483868E-02  5.63472075157866E-32
  1.43499465073944E-02 -3.09491130865824E-02  5.63472075157866E-32
  5.53406649369610E-03  5.36781925191605E-02  5.63472075157866E-32
  2.25332238341239E-02 -4.06154440921347E-01  5.63472075157866E-32
  6.32957234561534E-02 -6.48760761220017E-01  5.63472075157866E-32
 -5.47291584953745E-02 -2.15764771899824E+00  5.63472075157866E-32
 -2.21105872906866E-01  3.35937684383892E+00  5.63472075157866E-32
  1.44938112545762E-01 -3.54584162285817E+00  5.63472075157866E-32
  4.97373474904565E-02  2.35388271850851E+00  5.63472075157866E-32
 -7.68913000395479E-02  7.05160098668677E-01  5.63472075157866E-32
 -1.69688872339712E-02  3.23189487130305E-01  5.63472075157866E-32
 -1.18930644665526E-03 -5.64270059334373E-02  5.63472075157866E-32
 -1.49394527311242E-02  6.13523842350323E-02  5.63472075157866E-32
 -3.86437147539025E-03  7.90809105655730E-02  5.63472075157866E-32
  1.92357228678046E-03 -8.99399724483868E-02  5.63472075157866E-32
 -1.43499465073944E-02 -3.09491130865824E-02  5.63472075157866E-32
 -5.53406649369611E-03  5.36781925191605E-02  5.63472075157866E-32
 -2.25332238341239E-02 -4.06154440921347E-01  5.63472075157866E-32
 -6.32957234561534E-02 -6.48760761220017E-01  5.63472075157866E-32
  5.47291584953745E-02 -2.15764771899824E+00  5.63472075157866E-32
  2.21105872906866E-01  3.35937684383892E+00  5.63472075157866E-32
 Total energy (etotal) [Ha]= -1.68395804790898E+02

 Difference of energy with previous step (new-old):
           Absolute (Ha)=-7.54100E-02
           Relative     =-4.47914E-04

--- Iteration: ( 3/10) Internal Cycle: (1/1)
--------------------------------------------------------------------------------

---SELF-CONSISTENT-FIELD CONVERGENCE--------------------------------------------

     iter   Etot(hartree)      deltaE(h)  residm     vres2
 ETOT  1  -168.39579372745    -1.684E+02 2.623E-04 4.668E+01
 ETOT  2  -168.40010146178    -4.308E-03 9.750E-05 2.110E+01
 ETOT  3  -168.40145544276    -1.354E-03 8.650E-05 9.110E-01
 ETOT  4  -168.40150208671    -4.664E-05 3.018E-05 7.747E-01
 ETOT  5  -168.40150435556    -2.269E-06 2.694E-05 6.671E-01
 ETOT  6  -168.40150504353    -6.880E-07 1.006E-05 3.609E-01
 ETOT  7  -168.40150548120    -4.377E-07 8.884E-06 8.542E-02

 At SCF step    7, etot is converged : 
  for the second time, diff in etot=  4.377E-07 < toldfe=  1.000E-06

 Cartesian components of stress tensor (hartree/bohr^3)
  sigma(1 1)=  1.99262871E-05  sigma(3 2)=  0.00000000E+00
  sigma(2 2)=  3.62935764E-05  sigma(3 1)=  0.00000000E+00
  sigma(3 3)=  2.30778943E-05  sigma(2 1)=  0.00000000E+00

 Integrated electronic density in atomic spheres:
 ------------------------------------------------
 Atom  Sphere_radius  Integrated_density
    1        2.00000          4.62435687
    2        2.00000          4.69164133
    3        2.00000          4.71008195
    4        2.00000          4.74017123
    5        2.00000          4.75804764
    6        2.00000          4.74270375
    7        2.00000          4.76541085
    8        2.00000          4.74848460
    9        2.00000          4.77228964
   10        2.00000          4.74501722
   11        2.00000          4.76141102
   12        2.00000          4.69385491
   13        2.00000          4.67646390
   14        2.00000          4.65679038
   15        2.00000          4.61069858
   16        2.00000          4.74035533
   17        2.00000          4.74590583
   18        2.00000          4.79462113
   19        2.00000          4.79254186
   20        2.00000          4.81339782
   21        2.00000          4.80123033
   22        2.00000          4.81405650
   23        2.00000          4.78975027
   24        2.00000          4.81394248
   25        2.00000          4.78108668
   26        2.00000          4.76187867
   27        2.00000          4.74184318
   28        2.00000          4.62418640

---OUTPUT-----------------------------------------------------------------------

 Cartesian coordinates (xcart) [bohr]
  1.92921647223486E-01  6.64014418189845E-02  7.01465432198818E-30
  4.04488278596172E+00  2.27468898690627E+00  7.01465432198818E-30
  4.99441570971959E-03  4.63545478958132E+00  7.01465432198818E-30
  4.03124245268824E+00  6.96820723455439E+00  7.04880172823796E-30
  1.00545111400730E-03  9.29806195566431E+00 -2.26207929120611E-29
  4.02361391276869E+00  1.16189983348476E+01  7.01465432198818E-30
  2.01322047027730E-03  1.39425325153781E+01 -4.01708277644873E-29
  4.02702313753555E+00  1.62682496216419E+01  7.01465432198818E-30
 -1.52496400032410E-03  1.85921930745322E+01  7.01465432198818E-30
  4.02622443915532E+00  2.09127077413519E+01  7.01465432198818E-30
  6.27714021095006E-03  2.32420535016463E+01  7.01465432198818E-30
  4.03022782875163E+00  2.55762316919221E+01  7.01465432198818E-30
  1.99482185707468E-02  2.79371430716458E+01  7.01465432198818E-30
  4.22350854391793E+00  3.01421701722489E+01  7.01465432198818E-30
  2.49048946147413E+00  6.64014418189844E-02  7.01465432198818E-30
 -1.36147167726410E+00  2.27468898690627E+00  9.96693081450565E-30
  2.67841669298789E+00  4.63545478958132E+00  7.01465432198818E-30
 -1.34783134399063E+00  6.96820723455439E+00  7.01465432198818E-30
  2.68240565758361E+00  9.29806195566431E+00  7.01465432198818E-30
 -1.34020280407108E+00  1.16189983348476E+01 -1.70993597772002E-29
  2.68139788822733E+00  1.39425325153781E+01  7.01465432198818E-30
 -1.34361202883794E+00  1.62682496216419E+01  7.01465432198818E-30
  2.68493607269794E+00  1.85921930745322E+01 -6.75059126138213E-29
 -1.34281333045771E+00  2.09127077413519E+01  7.01465432198818E-30
  2.67713396848667E+00  2.32420535016463E+01  7.01465432198818E-30
 -1.34681672005402E+00  2.55762316919221E+01  4.00718876688662E-29
  2.66346289012687E+00  2.79371430716458E+01  7.01465432198818E-30
 -1.54009743522032E+00  3.01421701722489E+01 -4.99838135838037E-29
 Reduced coordinates (xred)
  2.39647274071149E-02  6.27466600502170E-04  1.23733173111116E-31
  5.02455347828396E-01  2.14948851518120E-02  1.23733173111116E-31
  6.20406329532267E-04  4.38031611802820E-02  1.23733173111116E-31
  5.00760945601660E-01  6.58467223796095E-02  1.24335507415111E-31
  1.24897139409411E-04  8.78629012677735E-02 -3.99013601643231E-31
  4.99813328357470E-01  1.09794805454402E-01  1.23733173111116E-31
  2.50082250877368E-04  1.31751257806484E-01 -7.08582883438702E-31
  5.00236822264885E-01  1.53728337918318E-01  1.23733173111116E-31
 -1.89431031195246E-04  1.75688657727630E-01  1.23733173111116E-31
  5.00137607950482E-01  1.97616576904055E-01  1.23733173111116E-31
  7.79746369661642E-04  2.19627946319654E-01  1.23733173111116E-31
  5.00634909014207E-01  2.41684980231829E-01  1.23733173111116E-31
  2.47796775108239E-03  2.63994631904160E-01  1.23733173111116E-31
  5.24644239841903E-01  2.84831240582061E-01  1.23733173111116E-31
  3.09368605926218E-01  6.27466600502169E-04  1.23733173111116E-31
 -1.69122014495062E-01  2.14948851518120E-02  1.75809087554325E-31
  3.32712927003801E-01  4.38031611802820E-02  1.23733173111116E-31
 -1.67427612268327E-01  6.58467223796095E-02  1.23733173111116E-31
  3.33208436193924E-01  8.78629012677735E-02  1.23733173111116E-31
 -1.66479995024137E-01  1.09794805454402E-01 -3.01619715852497E-31
  3.33083251082456E-01  1.31751257806484E-01  1.23733173111116E-31
 -1.66903488931551E-01  1.53728337918318E-01  1.23733173111116E-31
  3.33522764364529E-01  1.75688657727630E-01 -1.19075301334341E-30
 -1.66804274617148E-01  1.97616576904055E-01  1.23733173111116E-31
  3.32553586963672E-01  2.19627946319654E-01  1.23733173111116E-31
 -1.67301575680874E-01  2.41684980231829E-01  7.06837655318089E-31
  3.30855365582251E-01  2.63994631904160E-01  1.23733173111116E-31
 -1.91310906508570E-01  2.84831240582061E-01 -8.81676498232005E-31
 Cartesian forces (fcart) [Ha/bohr]; max,rms= 4.93572E-02 1.12844E-02 (free atoms)
 -3.83943406681424E-02  2.32601107355497E-02 -0.00000000000000E+00
  3.17871107331476E-03 -9.46620798821618E-03 -0.00000000000000E+00
 -3.24589764079820E-03 -7.63552054305512E-03 -0.00000000000000E+00
 -1.10498052120108E-03 -3.38913381966851E-03 -0.00000000000000E+00
  5.12948607818288E-04 -1.02835072022211E-03 -0.00000000000000E+00
  8.41801422816172E-05 -3.14489479380004E-04 -0.00000000000000E+00
 -4.45776846619788E-06 -1.94235260993929E-04 -0.00000000000000E+00
  4.04543658335623E-05  2.96212015295641E-04 -0.00000000000000E+00
  8.81474930775261E-05  7.98091386286519E-05 -0.00000000000000E+00
  4.87078771234975E-04  1.04456222205714E-03 -0.00000000000000E+00
 -1.35944146316837E-03  3.91426568496697E-03 -0.00000000000000E+00
 -3.70192706903039E-03  7.24291670116032E-03 -0.00000000000000E+00
  3.19757829887629E-03  9.27915895441163E-03 -0.00000000000000E+00
 -4.93571559186397E-02 -2.30890976405342E-02 -0.00000000000000E+00
  3.83943406681424E-02  2.32601107355497E-02 -0.00000000000000E+00
 -3.17871107331476E-03 -9.46620798821618E-03 -0.00000000000000E+00
  3.24589764079820E-03 -7.63552054305512E-03 -0.00000000000000E+00
  1.10498052120108E-03 -3.38913381966851E-03 -0.00000000000000E+00
 -5.12948607818287E-04 -1.02835072022211E-03 -0.00000000000000E+00
 -8.41801422816168E-05 -3.14489479380004E-04 -0.00000000000000E+00
  4.45776846619838E-06 -1.94235260993929E-04 -0.00000000000000E+00
 -4.04543658335618E-05  2.96212015295641E-04 -0.00000000000000E+00
 -8.81474930775256E-05  7.98091386286519E-05 -0.00000000000000E+00
 -4.87078771234974E-04  1.04456222205714E-03 -0.00000000000000E+00
  1.35944146316837E-03  3.91426568496697E-03 -0.00000000000000E+00
  3.70192706903039E-03  7.24291670116032E-03 -0.00000000000000E+00
 -3.19757829887629E-03  9.27915895441163E-03 -0.00000000000000E+00
  4.93571559186397E-02 -2.30890976405342E-02 -0.00000000000000E+00
 Reduced forces (fred)
  3.09083400780042E-01 -2.46149339020380E+00 -0.00000000000000E+00
 -2.55893658164188E-02  1.00175827442113E+00 -0.00000000000000E+00
  2.61302333610398E-02  8.08026391670201E-01  0.00000000000000E+00
  8.89535101645635E-03  3.58653945824951E-01  0.00000000000000E+00
 -4.12935597723171E-03  1.08824868867428E-01 -0.00000000000000E+00
 -6.77669786790712E-04  3.32807433113117E-02 -0.00000000000000E+00
  3.58860762665920E-05  2.05548811231731E-02  0.00000000000000E+00
 -3.25667084019295E-04 -3.13465368260181E-02 -0.00000000000000E+00
 -7.09607886384238E-04 -8.44577523494077E-03 -0.00000000000000E+00
 -3.92109775662815E-03 -1.10540445593002E-01 -0.00000000000000E+00
  1.09438209716704E-02 -4.14225848732618E-01 -0.00000000000000E+00
  2.98013766618737E-02 -7.66479222235806E-01 -0.00000000000000E+00
 -2.57412513844052E-02 -9.81963873371683E-01 -0.00000000000000E+00
  3.97336621457394E-01  2.44339598697968E+00  0.00000000000000E+00
 -3.09083400780042E-01 -2.46149339020380E+00 -0.00000000000000E+00
  2.55893658164188E-02  1.00175827442113E+00  0.00000000000000E+00
 -2.61302333610398E-02  8.08026391670201E-01 -0.00000000000000E+00
 -8.89535101645635E-03  3.58653945824951E-01 -0.00000000000000E+00
  4.12935597723170E-03  1.08824868867428E-01  0.00000000000000E+00
  6.77669786790708E-04  3.32807433113117E-02  0.00000000000000E+00
 -3.58860762665960E-05  2.05548811231731E-02 -0.00000000000000E+00
  3.25667084019291E-04 -3.13465368260181E-02 -0.00000000000000E+00
  7.09607886384234E-04 -8.44577523494077E-03 -0.00000000000000E+00
  3.92109775662814E-03 -1.10540445593002E-01 -0.00000000000000E+00
 -1.09438209716704E-02 -4.14225848732618E-01 -0.00000000000000E+00
 -2.98013766618737E-02 -7.66479222235806E-01 -0.00000000000000E+00
  2.57412513844051E-02 -9.81963873371683E-01 -0.00000000000000E+00
 -3.97336621457394E-01  2.44339598697968E+00 -0.00000000000000E+00
 Total energy (etotal) [Ha]= -1.68401505481200E+02

 Difference of energy with previous step (new-old):
           Absolute (Ha)=-5.70069E-03
           Relative     =-3.38524E-05

--- Iteration: ( 4/10) Internal Cycle: (1/1)
--------------------------------------------------------------------------------

---SELF-CONSISTENT-FIELD CONVERGENCE--------------------------------------------

     iter   Etot(hartree)      deltaE(h)  residm     vres2
 ETOT  1  -168.40481149023    -1.684E+02 5.613E-06 9.518E+00
 ETOT  2  -168.40590918674    -1.098E-03 1.406E-05 3.048E+00
 ETOT  3  -168.40625060957    -3.414E-04 1.278E-05 3.100E-01
 ETOT  4  -168.40628719731    -3.659E-05 4.415E-05 1.668E-01
 ETOT  5  -168.40628734816    -1.508E-07 1.976E-05 1.603E-01
 ETOT  6  -168.40628768103    -3.329E-07 8.797E-05 8.191E-02

 At SCF step    6, etot is converged : 
  for the second time, diff in etot=  3.329E-07 < toldfe=  1.000E-06

 Cartesian components of stress tensor (hartree/bohr^3)
  sigma(1 1)=  2.12030149E-05  sigma(3 2)=  0.00000000E+00
  sigma(2 2)=  3.42179324E-05  sigma(3 1)=  0.00000000E+00
  sigma(3 3)=  2.30036588E-05  sigma(2 1)=  0.00000000E+00

 Integrated electronic density in atomic spheres:
 ------------------------------------------------
 Atom  Sphere_radius  Integrated_density
    1        2.00000          4.64048105
    2        2.00000          4.77337321
    3        2.00000          4.70201456
    4        2.00000          4.72525891
    5        2.00000          4.75616519
    6        2.00000          4.74342842
    7        2.00000          4.76450930
    8        2.00000          4.74670504
    9        2.00000          4.77010554
   10        2.00000          4.74419408
   11        2.00000          4.74568520
   12        2.00000          4.67979572
   13        2.00000          4.74945571
   14        2.00000          4.64572276
   15        2.00000          4.60913698
   16        2.00000          4.77882832
   17        2.00000          4.71457805
   18        2.00000          4.78854474
   19        2.00000          4.78803371
   20        2.00000          4.80411211
   21        2.00000          4.80363731
   22        2.00000          4.81386911
   23        2.00000          4.78889457
   24        2.00000          4.80924057
   25        2.00000          4.77170491
   26        2.00000          4.73343001
   27        2.00000          4.78375077
   28        2.00000          4.61517850

---OUTPUT-----------------------------------------------------------------------

 Cartesian coordinates (xcart) [bohr]
  1.80168452841418E-01  1.04614466314143E-01  7.53000854322372E-30
  4.05150363676400E+00  2.25420868254397E+00  7.53000854322372E-30
 -1.15716211095321E-03  4.62526633563147E+00  7.53000854322372E-30
  4.02991174302333E+00  6.96379340477451E+00  7.57732615356101E-30
  1.47480184520893E-03  9.29754096209933E+00 -2.42843108554342E-29
  4.02286679153138E+00  1.16184615043633E+01  7.53000854322372E-30
  1.97344340710555E-03  1.39420098837178E+01 -4.31246681425403E-29
  4.02729047810840E+00  1.62689052213700E+01  7.53000854322372E-30
 -2.24217382413049E-03  1.85924469515650E+01  7.53000854322372E-30
  4.02647179375766E+00  2.09132572460025E+01  7.53000854322372E-30
  4.46857546209656E-03  2.32471958368057E+01  7.53000854322372E-30
  4.02432985214184E+00  2.55859403362072E+01  7.53000854322372E-30
  2.68365925884291E-02  2.79568292764849E+01  7.53000854322372E-30
  4.20512105880160E+00  3.01046240258601E+01  7.53000854322372E-30
  2.50324265585620E+00  1.04614466314143E-01  7.53000854322372E-30
 -1.36809252806638E+00  2.25420868254397E+00  1.06993437836984E-29
  2.68456827080856E+00  4.62526633563147E+00  7.53000854322372E-30
 -1.34650063432573E+00  6.96379340477451E+00  7.53000854322372E-30
  2.68193630685241E+00  9.29754096209933E+00  7.53000854322372E-30
 -1.33945568283376E+00  1.16184615043633E+01 -1.83569281537831E-29
  2.68143766529050E+00  1.39420098837178E+01  7.53000854322372E-30
 -1.34387936941079E+00  1.62689052213700E+01  7.53000854322372E-30
  2.68565328252175E+00  1.85924469515650E+01 -7.24694967634143E-29
 -1.34306068506004E+00  2.09132572460025E+01  7.53000854322372E-30
  2.67894253323552E+00  2.32471958368057E+01  7.53000854322372E-30
 -1.34091874344423E+00  2.55859403362072E+01  4.30176923236532E-29
  2.65657451610919E+00  2.79568292764849E+01  7.53000854322372E-30
 -1.52170995010399E+00  3.01046240258601E+01 -5.36591292102154E-29
 Reduced coordinates (xred)
  2.23805255752584E-02  9.88564129683049E-04  1.32823630052066E-31
  5.03277789928405E-01  2.13013546108564E-02  1.32823630052066E-31
 -1.43742679755947E-04  4.37068844370493E-02  1.32823630052066E-31
  5.00595644844401E-01  6.58050134845719E-02  1.33658276750580E-31
  1.83199888185691E-04  8.78579780906233E-02 -4.28356794367017E-31
  4.99720520955865E-01  1.09789732624810E-01  1.32823630052066E-31
  2.45141144009966E-04  1.31746319149999E-01 -7.60686383634652E-31
  5.00270031311383E-01  1.53734533068926E-01  1.32823630052066E-31
 -2.78522836954680E-04  1.75691056762265E-01  1.32823630052066E-31
  5.00168334339682E-01  1.97621769499360E-01  1.32823630052066E-31
  5.55086452912213E-04  2.19676539294034E-01  1.32823630052066E-31
  4.99902262347847E-01  2.41776722969007E-01  1.32823630052066E-31
  3.33364158544882E-03  2.64180658527812E-01  1.32823630052066E-31
  5.22360146403676E-01  2.84476444779573E-01  1.32823630052066E-31
  3.10952807758075E-01  9.88564129683048E-04  1.32823630052066E-31
 -1.69944456595071E-01  2.13013546108564E-02  1.88728295906743E-31
  3.33477076013089E-01  4.37068844370493E-02  1.32823630052066E-31
 -1.67262311511069E-01  6.58050134845719E-02  1.32823630052066E-31
  3.33150133445148E-01  8.78579780906233E-02  1.32823630052066E-31
 -1.66387187622531E-01  1.09789732624810E-01 -3.23802266623538E-31
  3.33088192189323E-01  1.31746319149999E-01  1.32823630052066E-31
 -1.66936697978049E-01  1.53734533068926E-01  1.32823630052066E-31
  3.33611856170288E-01  1.75691056762265E-01 -1.27830686683952E-30
 -1.66835001006348E-01  1.97621769499360E-01  1.32823630052066E-31
  3.32778246880421E-01  2.19676539294034E-01  1.32823630052066E-31
 -1.66568929014514E-01  2.41776722969007E-01  7.58799411460476E-31
  3.29999691747885E-01  2.64180658527812E-01  1.32823630052066E-31
 -1.89026813070342E-01  2.84476444779573E-01 -9.46506273694397E-31
 Cartesian forces (fcart) [Ha/bohr]; max,rms= 9.90638E-03 3.24608E-03 (free atoms)
 -7.43967795659173E-03  9.90637917850796E-03  2.42268471128494E-33
  1.61401931156073E-03  3.70533060706421E-03 -2.54071294080908E-32
  2.01070249092750E-03 -6.14944421626735E-03  3.02524988306606E-32
 -4.29725537726505E-04 -3.25459205777288E-03  2.42268471128494E-33
  1.68809932345926E-04 -2.36175171854116E-03 -3.93220364677786E-32
  1.04876551929843E-03 -4.51759800331873E-04  5.80823129500363E-32
  6.18853688777498E-05  2.34648558924566E-04 -2.36677660256298E-32
 -8.26633748739107E-05 -2.32812141261858E-04  2.42268471128494E-33
  1.07237513526585E-03  4.17096950971881E-04  2.42268471128494E-33
  2.48501457420187E-04  2.43085424970876E-03  2.42268471128494E-33
 -2.18400792328085E-04  3.26849468028708E-03 -2.54071294080908E-32
  1.71908346045374E-03  5.99957476887637E-03  2.42268471128494E-33
  1.33566610534838E-03 -4.01848165101364E-03  2.42268471128494E-33
 -6.93069985262495E-03 -9.49353740915205E-03  2.42268471128494E-33
  7.43967795659173E-03  9.90637917850796E-03  2.42268471128494E-33
 -1.61401931156073E-03  3.70533060706421E-03  3.02524988306606E-32
 -2.01070249092750E-03 -6.14944421626735E-03  2.42268471128494E-33
  4.29725537726505E-04 -3.25459205777288E-03  2.42268471128494E-33
 -1.68809932345926E-04 -2.36175171854116E-03  2.42268471128494E-33
 -1.04876551929843E-03 -4.51759800331873E-04 -5.32369435274665E-32
 -6.18853688777499E-05  2.34648558924566E-04  2.42268471128494E-33
  8.26633748739106E-05 -2.32812141261858E-04  2.42268471128494E-33
 -1.07237513526585E-03  4.17096950971881E-04  2.42268471128494E-33
 -2.48501457420187E-04  2.43085424970876E-03  2.42268471128494E-33
  2.18400792328085E-04  3.26849468028708E-03  2.42268471128494E-33
 -1.71908346045374E-03  5.99957476887637E-03  2.42268471128494E-33
 -1.33566610534838E-03 -4.01848165101364E-03  2.42268471128494E-33
  6.93069985262495E-03 -9.49353740915205E-03  2.42268471128494E-33
 Reduced forces (fred)
  5.98911434215530E-02 -1.04833924249044E+00 -1.37346318319730E-31
 -1.29932320508836E-02 -3.92115364432414E-01  1.44037549212229E-30
 -1.61866242013224E-02  6.50762864539361E-01 -1.71506812876175E-30
  3.45939084487908E-03  3.44416109153506E-01 -1.37346318319730E-31
 -1.35895934314665E-03  2.49931580747229E-01  2.22923639734331E-30
 -8.44280713471326E-03  4.78073288265630E-02 -3.29278993920378E-30
 -4.98191658937210E-04 -2.48316047752477E-02  1.34176787896967E-30
  6.65459455257261E-04  2.46372664941535E-02 -1.37346318319730E-31
 -8.63287005199046E-03 -4.41391444591152E-02 -1.37346318319730E-31
 -2.00049471410663E-03 -2.57244332851003E-01 -1.37346318319730E-31
  1.75817733684463E-03 -3.45887349502027E-01  1.44037549212229E-30
 -1.38390229636797E-02 -6.34902980709033E-01 -1.37346318319730E-31
 -1.07524237938081E-02  4.25254468264748E-01 -1.37346318319730E-31
  5.57937509267481E-02  1.00465040119372E+00 -1.37346318319730E-31
 -5.98911434215530E-02 -1.04833924249044E+00 -1.37346318319730E-31
  1.29932320508836E-02 -3.92115364432414E-01 -1.71506812876175E-30
  1.61866242013224E-02  6.50762864539361E-01 -1.37346318319730E-31
 -3.45939084487908E-03  3.44416109153506E-01 -1.37346318319730E-31
  1.35895934314666E-03  2.49931580747229E-01 -1.37346318319730E-31
  8.44280713471326E-03  4.78073288265630E-02  3.01809730256432E-30
  4.98191658937211E-04 -2.48316047752477E-02 -1.37346318319730E-31
 -6.65459455257261E-04  2.46372664941535E-02 -1.37346318319730E-31
  8.63287005199046E-03 -4.41391444591152E-02 -1.37346318319730E-31
  2.00049471410663E-03 -2.57244332851003E-01 -1.37346318319730E-31
 -1.75817733684463E-03 -3.45887349502027E-01 -1.37346318319730E-31
  1.38390229636797E-02 -6.34902980709033E-01 -1.37346318319730E-31
  1.07524237938081E-02  4.25254468264748E-01 -1.37346318319730E-31
 -5.57937509267481E-02  1.00465040119372E+00 -1.37346318319730E-31
 Total energy (etotal) [Ha]= -1.68406287681033E+02

 Difference of energy with previous step (new-old):
           Absolute (Ha)=-4.78220E-03
           Relative     =-2.83972E-05

--- Iteration: ( 5/10) Internal Cycle: (1/1)
--------------------------------------------------------------------------------

---SELF-CONSISTENT-FIELD CONVERGENCE--------------------------------------------

     iter   Etot(hartree)      deltaE(h)  residm     vres2
 ETOT  1  -168.40692158204    -1.684E+02 1.612E-04 4.378E+00
 ETOT  2  -168.40715655227    -2.350E-04 5.785E-04 9.251E-01
 ETOT  3  -168.40719250003    -3.595E-05 1.679E-04 5.435E-02
 ETOT  4  -168.40719572021    -3.220E-06 2.035E-04 5.968E-02
 ETOT  5  -168.40719590207    -1.819E-07 9.291E-05 5.466E-02
 ETOT  6  -168.40719591182    -9.750E-09 1.830E-04 3.052E-02

 At SCF step    6, etot is converged : 
  for the second time, diff in etot=  9.750E-09 < toldfe=  1.000E-06

 Cartesian components of stress tensor (hartree/bohr^3)
  sigma(1 1)=  2.08597367E-05  sigma(3 2)=  0.00000000E+00
  sigma(2 2)=  3.29553492E-05  sigma(3 1)=  0.00000000E+00
  sigma(3 3)=  2.30146845E-05  sigma(2 1)=  0.00000000E+00

 Integrated electronic density in atomic spheres:
 ------------------------------------------------
 Atom  Sphere_radius  Integrated_density
    1        2.00000          4.67589024
    2        2.00000          4.80736820
    3        2.00000          4.70923225
    4        2.00000          4.71772844
    5        2.00000          4.74706073
    6        2.00000          4.74138691
    7        2.00000          4.76343533
    8        2.00000          4.74563350
    9        2.00000          4.77184374
   10        2.00000          4.74004510
   11        2.00000          4.73752968
   12        2.00000          4.68259542
   13        2.00000          4.79437172
   14        2.00000          4.66430883
   15        2.00000          4.62067069
   16        2.00000          4.81589984
   17        2.00000          4.72237612
   18        2.00000          4.78561308
   19        2.00000          4.78112896
   20        2.00000          4.81042325
   21        2.00000          4.80255555
   22        2.00000          4.81279513
   23        2.00000          4.78686511
   24        2.00000          4.80590233
   25        2.00000          4.76838621
   26        2.00000          4.75600585
   27        2.00000          4.81371787
   28        2.00000          4.65133157

---OUTPUT-----------------------------------------------------------------------

 Cartesian coordinates (xcart) [bohr]
  1.76367984498791E-01  1.29360625920173E-01  7.78915901647615E-30
  4.05593084911397E+00  2.25199846944692E+00  7.75201210276176E-30
 -4.98763840701969E-04  4.61445471513941E+00  7.82630593019053E-30
  4.02903025592686E+00  6.95834729945411E+00  7.84307786352498E-30
  1.76689915987680E-03  9.29446372413785E+00 -2.51628832026829E-29
  4.02386434905404E+00  1.16176924061232E+01  7.86345284390492E-30
  2.03668354520783E-03  1.39421247673276E+01 -4.46231043903865E-29
  4.02730033243486E+00  1.62688260472583E+01  7.78915901647615E-30
 -1.19937185661352E-03  1.85931045774894E+01  7.78915901647615E-30
  4.02676720830328E+00  2.09164356908303E+01  7.78915901647615E-30
  3.71268581952444E-03  2.32528540663958E+01  7.75201210276176E-30
  4.02487620237745E+00  2.55964395127585E+01  7.78915901647615E-30
  3.10203668664972E-02  2.79582836143294E+01  7.78915901647615E-30
  4.20277011710483E+00  3.00807086171289E+01  7.78915901647615E-30
  2.50704312419882E+00  1.29360625920173E-01  7.78915901647615E-30
 -1.37251974041635E+00  2.25199846944692E+00  1.11034300078825E-29
  2.68390987253831E+00  4.61445471513941E+00  7.78915901647615E-30
 -1.34561914722925E+00  6.95834729945411E+00  7.78915901647615E-30
  2.68164420953774E+00  9.29446372413785E+00  7.78915901647615E-30
 -1.34045324035642E+00  1.16176924061232E+01 -1.90524841478261E-29
  2.68137442515240E+00  1.39421247673276E+01  7.78915901647615E-30
 -1.34388922373724E+00  1.62688260472583E+01  7.78915901647615E-30
  2.68461048055423E+00  1.85931045774894E+01 -7.49311230463853E-29
 -1.34335609960566E+00  2.09164356908303E+01  7.78915901647615E-30
  2.67969842287809E+00  2.32528540663958E+01  7.78915901647615E-30
 -1.34146509367984E+00  2.55964395127585E+01  4.44837760747042E-29
  2.65239074183112E+00  2.79582836143294E+01  7.78915901647615E-30
 -1.51935900840721E+00  3.00807086171289E+01 -5.54810164020684E-29
 Reduced coordinates (xred)
  2.19084313900739E-02  1.22240526653379E-03  1.37394847520083E-31
  5.03827738255446E-01  2.12804689966227E-02  1.36739604183179E-31
 -6.19564452977219E-05  4.36047190236150E-02  1.38050090856986E-31
  5.00486146515499E-01  6.57535500058016E-02  1.38345935019139E-31
  2.19484217202728E-04  8.78288994442907E-02 -4.43854143109065E-31
  4.99844437553341E-01  1.09782464959456E-01  1.38705334193890E-31
  2.52996834092550E-04  1.31747404753356E-01 -7.87117660664163E-31
  5.00271255415835E-01  1.53733784905793E-01  1.37394847520083E-31
 -1.48985974446983E-04  1.75697271059603E-01  1.37394847520083E-31
  5.00205030735136E-01  1.97651804509390E-01  1.37394847520083E-31
  4.61189839987704E-04  2.19730007260821E-01  1.36739604183179E-31
  4.99970129975215E-01  2.41875935914363E-01  1.37394847520083E-31
  3.85335003470674E-03  2.64194401428543E-01  1.37394847520083E-31
  5.22068112421362E-01  2.84250453900382E-01  1.37394847520083E-31
  3.11424901943259E-01  1.22240526653379E-03  1.37394847520083E-31
 -1.70494404922112E-01  2.12804689966227E-02  1.95856069911524E-31
  3.33395289778631E-01  4.36047190236150E-02  1.37394847520083E-31
 -1.67152813182167E-01  6.57535500058016E-02  1.37394847520083E-31
  3.33113849116131E-01  8.78288994442907E-02  1.37394847520083E-31
 -1.66511104220007E-01  1.09782464959456E-01 -3.36071345935062E-31
  3.33080336499240E-01  1.31747404753356E-01  1.37394847520083E-31
 -1.66937922082501E-01  1.53733784905793E-01  1.37394847520083E-31
  3.33482319307781E-01  1.75697271059603E-01 -1.32172808434000E-30
 -1.66871697401802E-01  1.97651804509390E-01  1.37394847520083E-31
  3.32872143493346E-01  2.19730007260821E-01  1.37394847520083E-31
 -1.66636796641883E-01  2.41875935914363E-01  7.84660015025153E-31
  3.29479983298627E-01  2.64194401428543E-01  1.37394847520083E-31
 -1.88734779088028E-01  2.84250453900382E-01 -9.78642979646084E-31
 Cartesian forces (fcart) [Ha/bohr]; max,rms= 7.43915E-03 2.06845E-03 (free atoms)
  2.65813166200003E-03  2.91021882102406E-03 -1.98784386566969E-33
 -6.04403815308367E-05  7.43915196090778E-03 -1.98784386566969E-33
  1.74051563116931E-03 -1.94280839207880E-03  5.36717843730817E-32
 -3.72500767946158E-04 -3.22269521330649E-03 -1.98784386566969E-33
 -5.38429634546774E-04 -2.49609545932640E-03 -1.98784386566969E-33
  2.33496883364132E-04 -9.43926352356577E-04 -1.98784386566969E-33
 -1.10895428423626E-04 -4.04246971289069E-05 -1.98784386566969E-33
 -2.23708278334863E-04  1.71685566983870E-05  2.58419702537060E-32
  1.96694886489270E-04  9.96021602647435E-04 -1.98784386566969E-33
 -4.56980107520595E-04  2.51646567785605E-03 -1.98784386566969E-33
 -2.39753081650333E-04  3.09055535578002E-03 -1.98784386566969E-33
  1.49396416811154E-03  1.87744597591489E-03 -1.98784386566969E-33
 -2.20459635497867E-04 -7.20349203175125E-03 -1.98784386566969E-33
  3.09380493225981E-04 -2.99758580488019E-03 -1.98784386566969E-33
 -2.65813166200003E-03  2.91021882102406E-03 -1.98784386566969E-33
  6.04403815308367E-05  7.43915196090778E-03 -1.98784386566969E-33
 -1.74051563116931E-03 -1.94280839207880E-03 -2.98176579850454E-32
  3.72500767946158E-04 -3.22269521330649E-03 -1.98784386566969E-33
  5.38429634546774E-04 -2.49609545932640E-03 -1.98784386566969E-33
 -2.33496883364132E-04 -9.43926352356577E-04 -1.98784386566969E-33
  1.10895428423626E-04 -4.04246971289069E-05 -1.98784386566969E-33
  2.23708278334863E-04  1.71685566983870E-05 -1.98784386566969E-33
 -1.96694886489270E-04  9.96021602647435E-04 -1.98784386566969E-33
  4.56980107520595E-04  2.51646567785605E-03 -1.98784386566969E-33
  2.39753081650332E-04  3.09055535578002E-03 -1.98784386566969E-33
 -1.49396416811154E-03  1.87744597591489E-03 -1.98784386566969E-33
  2.20459635497867E-04 -7.20349203175125E-03 -1.98784386566969E-33
 -3.09380493225981E-04 -2.99758580488019E-03 -1.98784386566969E-33
 Reduced forces (fred)
 -2.13985800905752E-02 -3.07972927276270E-01  1.12694415031573E-31
  4.86559173641308E-04 -7.87245752553955E-01  1.12694415031573E-31
 -1.40115569386247E-02  2.05597044223247E-01 -3.04274920585247E-30
  2.99871809611534E-03  3.41040636323002E-01  1.12694415031573E-31
  4.33448418778443E-03  2.64148461901313E-01  1.12694415031573E-31
 -1.87970439199675E-03  9.98906885517881E-02  1.12694415031573E-31
  8.92734073607220E-04  4.27792996839503E-03  1.12694415031573E-31
  1.80090383757417E-03 -1.81685673438477E-03 -1.46502739541045E-30
 -1.58343973028797E-03 -1.05403650880724E-01  1.12694415031573E-31
  3.67879649092379E-03 -2.66304133421444E-01  1.12694415031573E-31
  1.93006824793496E-03 -3.27056980373043E-01  1.12694415031573E-31
 -1.20267601341201E-02 -1.98680088530972E-01  1.12694415031573E-31
  1.77475150474321E-03  7.62307119864295E-01  1.12694415031573E-31
 -2.49058515701083E-03  3.17218508938751E-01  1.12694415031573E-31
  2.13985800905752E-02 -3.07972927276270E-01  1.12694415031573E-31
 -4.86559173641308E-04 -7.87245752553955E-01  1.12694415031573E-31
  1.40115569386247E-02  2.05597044223247E-01  1.69041622547360E-30
 -2.99871809611534E-03  3.41040636323002E-01  1.12694415031573E-31
 -4.33448418778443E-03  2.64148461901313E-01  1.12694415031573E-31
  1.87970439199675E-03  9.98906885517881E-02  1.12694415031573E-31
 -8.92734073607220E-04  4.27792996839503E-03  1.12694415031573E-31
 -1.80090383757417E-03 -1.81685673438477E-03  1.12694415031573E-31
  1.58343973028797E-03 -1.05403650880724E-01  1.12694415031573E-31
 -3.67879649092379E-03 -2.66304133421444E-01  1.12694415031573E-31
 -1.93006824793496E-03 -3.27056980373043E-01  1.12694415031573E-31
  1.20267601341201E-02 -1.98680088530972E-01  1.12694415031573E-31
 -1.77475150474321E-03  7.62307119864295E-01  1.12694415031573E-31
  2.49058515701083E-03  3.17218508938751E-01  1.12694415031573E-31
 Total energy (etotal) [Ha]= -1.68407195911821E+02

 Difference of energy with previous step (new-old):
           Absolute (Ha)=-9.08231E-04
           Relative     =-5.39308E-06

--- Iteration: ( 6/10) Internal Cycle: (1/1)
--------------------------------------------------------------------------------

---SELF-CONSISTENT-FIELD CONVERGENCE--------------------------------------------

     iter   Etot(hartree)      deltaE(h)  residm     vres2
 ETOT  1  -168.40752762374    -1.684E+02 1.992E-04 2.200E+00
 ETOT  2  -168.40761857663    -9.095E-05 1.511E-04 3.492E-01
 ETOT  3  -168.40763096820    -1.239E-05 3.915E-05 2.228E-02
 ETOT  4  -168.40763219432    -1.226E-06 8.799E-05 2.124E-02
 ETOT  5  -168.40763227503    -8.071E-08 2.466E-05 1.971E-02
 ETOT  6  -168.40763227246     2.568E-09 4.505E-05 1.037E-02

 At SCF step    6, etot is converged : 
  for the second time, diff in etot=  2.568E-09 < toldfe=  1.000E-06

 Cartesian components of stress tensor (hartree/bohr^3)
  sigma(1 1)=  2.06515557E-05  sigma(3 2)=  0.00000000E+00
  sigma(2 2)=  3.20996602E-05  sigma(3 1)=  0.00000000E+00
  sigma(3 3)=  2.30202099E-05  sigma(2 1)=  0.00000000E+00

 Integrated electronic density in atomic spheres:
 ------------------------------------------------
 Atom  Sphere_radius  Integrated_density
    1        2.00000          4.66415469
    2        2.00000          4.81683677
    3        2.00000          4.74645865
    4        2.00000          4.72091246
    5        2.00000          4.74993897
    6        2.00000          4.74098258
    7        2.00000          4.76161547
    8        2.00000          4.74363082
    9        2.00000          4.75871715
   10        2.00000          4.73322709
   11        2.00000          4.73001547
   12        2.00000          4.70621293
   13        2.00000          4.80300987
   14        2.00000          4.66276285
   15        2.00000          4.62217898
   16        2.00000          4.83669768
   17        2.00000          4.72756339
   18        2.00000          4.78717683
   19        2.00000          4.77529131
   20        2.00000          4.80747992
   21        2.00000          4.80072758
   22        2.00000          4.81076904
   23        2.00000          4.78952471
   24        2.00000          4.80146676
   25        2.00000          4.76595019
   26        2.00000          4.76697903
   27        2.00000          4.83035067
   28        2.00000          4.65168199

---OUTPUT-----------------------------------------------------------------------

 Cartesian coordinates (xcart) [bohr]
  1.77367324654900E-01  1.43636948648360E-01  7.87881913830751E-30
  4.05762877892654E+00  2.26028160201772E+00  7.83054001511365E-30
  1.61585241781384E-03  4.60774214082818E+00  8.00496581323072E-30
  4.02811528019618E+00  6.95187279062612E+00  7.93569350011815E-30
  1.13287273917209E-03  9.29000312461118E+00 -2.54767501830406E-29
  4.02443206953598E+00  1.16161003581720E+01  7.97537738469521E-30
  1.88883241804752E-03  1.39420634446074E+01 -4.51597885060792E-29
  4.02700482725343E+00  1.62688758177881E+01  7.91775291417220E-30
 -6.66977579336919E-04  1.85947120000518E+01  7.87881913830751E-30
  4.02622905193400E+00  2.09209571721348E+01  7.87881913830751E-30
  2.98184596472343E-03  2.32592669855400E+01  7.83054001511365E-30
  4.02663692580295E+00  2.56029253824927E+01  7.87881913830751E-30
  3.24432938047743E-02  2.79500331252568E+01  7.87881913830751E-30
  4.20050246432021E+00  3.00666232409648E+01  7.87881913830751E-30
  2.50604378404271E+00  1.43636948648360E-01  7.87881913830751E-30
 -1.37421767022891E+00  2.26028160201772E+00  1.12427581348010E-29
  2.68179525627980E+00  4.60774214082818E+00  7.83988536244282E-30
 -1.34470417149857E+00  6.95187279062612E+00  7.87881913830751E-30
  2.68227823595844E+00  9.29000312461118E+00  7.87881913830751E-30
 -1.34102096083836E+00  1.16161003581720E+01 -1.92998464701459E-29
  2.68152227627956E+00  1.39420634446074E+01  7.87881913830751E-30
 -1.34359371855581E+00  1.62688758177881E+01  7.87881913830751E-30
  2.68407808627696E+00  1.85947120000518E+01 -7.58141730834033E-29
 -1.34281794323637E+00  2.09209571721348E+01  7.87881913830751E-30
  2.68042926273290E+00  2.32592669855400E+01  7.87881913830751E-30
 -1.34322581710534E+00  2.56029253824927E+01  4.50049292463356E-29
  2.65096781489284E+00  2.79500331252568E+01  7.87881913830751E-30
 -1.51709135562258E+00  3.00666232409648E+01 -5.61353520796592E-29
 Reduced coordinates (xred)
  2.20325694262808E-02  1.35731070600222E-03  1.38976383953168E-31
  5.04038655100187E-01  2.13587412282691E-02  1.38124776898338E-31
  2.00721190599091E-04  4.35412879283208E-02  1.41201515463460E-31
  5.00372488228389E-01  6.56923685324340E-02  1.39979604487278E-31
  1.40725453944318E-04  8.77867485941807E-02 -4.49390518193539E-31
  4.99914959792753E-01  1.09767420754264E-01  1.40679598062828E-31
  2.34630766778565E-04  1.31746825278607E-01 -7.96584360738726E-31
  5.00234547761602E-01  1.53734255217044E-01  1.39663146180899E-31
 -8.28519562501469E-05  1.75712460548614E-01  1.38976383953168E-31
  5.00138180949858E-01  1.97694530667522E-01  1.38976383953168E-31
  3.70404911750634E-04  2.19790606736743E-01  1.38124776898338E-31
  5.00188847042682E-01  2.41937224743670E-01  1.38976383953168E-31
  4.03010602184876E-03  2.64116437664668E-01  1.38976383953168E-31
  5.21786424587883E-01  2.84117352828232E-01  1.38976383953168E-31
  3.11300763907053E-01  1.35731070600222E-03  1.38976383953168E-31
 -1.70705321766852E-01  2.13587412282691E-02  1.98313712220884E-31
  3.33132612142734E-01  4.35412879283208E-02  1.38289621725436E-31
 -1.67039154895057E-01  6.56923685324340E-02  1.38976383953168E-31
  3.33192607879389E-01  8.77867485941807E-02  1.38976383953168E-31
 -1.66581626459419E-01  1.09767420754264E-01 -3.40434629376245E-31
  3.33098702566554E-01  1.31746825278607E-01  1.38976383953168E-31
 -1.66901214428268E-01  1.53734255217044E-01  1.38976383953168E-31
  3.33416185289584E-01  1.75712460548614E-01 -1.33730441612782E-30
 -1.66804847616523E-01  1.97694530667522E-01  1.38976383953168E-31
  3.32962928421584E-01  2.19790606736743E-01  1.38976383953168E-31
 -1.66855513709349E-01  2.41937224743670E-01  7.93852761045543E-31
  3.29303227311485E-01  2.64116437664668E-01  1.38976383953168E-31
 -1.88453091254549E-01  2.84117352828232E-01 -9.90184963891031E-31
 Cartesian forces (fcart) [Ha/bohr]; max,rms= 5.49595E-03 1.68936E-03 (free atoms)
  1.59668140802406E-03  9.17744158536509E-04 -0.00000000000000E+00
 -7.80472161385211E-04  5.35960873110315E-03 -0.00000000000000E+00
  5.37610285387300E-04  1.63872780242589E-03 -0.00000000000000E+00
  1.34407803197038E-04 -2.15335561388066E-03 -0.00000000000000E+00
 -4.11310848308232E-04 -2.10971351699977E-03 -0.00000000000000E+00
 -3.26210673431260E-04 -1.32737934239902E-03 -0.00000000000000E+00
 -5.34541755615185E-05 -4.34183987773517E-04 -0.00000000000000E+00
 -3.31744996180742E-05  3.98690450961306E-04 -0.00000000000000E+00
 -3.33010433501223E-04  1.40875425994363E-03 -0.00000000000000E+00
 -4.30431865726769E-04  2.11078285094516E-03 -0.00000000000000E+00
  1.89065774289407E-04  1.94811354241862E-03 -0.00000000000000E+00
  7.81039359524783E-04 -1.63146106062366E-03 -0.00000000000000E+00
 -6.71624371027924E-04 -5.49594903074001E-03 -0.00000000000000E+00
  5.27034849508680E-03 -6.30379243917617E-04 -0.00000000000000E+00
 -1.59668140802406E-03  9.17744158536509E-04 -0.00000000000000E+00
  7.80472161385211E-04  5.35960873110315E-03 -0.00000000000000E+00
 -5.37610285387300E-04  1.63872780242589E-03 -0.00000000000000E+00
 -1.34407803197038E-04 -2.15335561388066E-03 -0.00000000000000E+00
  4.11310848308232E-04 -2.10971351699977E-03 -0.00000000000000E+00
  3.26210673431260E-04 -1.32737934239902E-03 -0.00000000000000E+00
  5.34541755615186E-05 -4.34183987773517E-04 -0.00000000000000E+00
  3.31744996180743E-05  3.98690450961306E-04 -0.00000000000000E+00
  3.33010433501223E-04  1.40875425994363E-03 -0.00000000000000E+00
  4.30431865726769E-04  2.11078285094516E-03 -0.00000000000000E+00
 -1.89065774289406E-04  1.94811354241862E-03 -0.00000000000000E+00
 -7.81039359524783E-04 -1.63146106062366E-03 -0.00000000000000E+00
  6.71624371027925E-04 -5.49594903074001E-03 -0.00000000000000E+00
 -5.27034849508680E-03 -6.30379243917617E-04 -0.00000000000000E+00
 Reduced forces (fred)
 -1.28536578820281E-02 -9.71199667026168E-02 -0.00000000000000E+00
  6.28298300367093E-03 -5.67178790147630E-01 -0.00000000000000E+00
 -4.32788823587513E-03 -1.73417818164106E-01 -0.00000000000000E+00
 -1.08201417658372E-03  2.27878133108992E-01 -0.00000000000000E+00
  3.31114829843445E-03  2.23259722894686E-01  0.00000000000000E+00
  2.62607203458352E-03  1.40469472168704E-01  0.00000000000000E+00
  4.30318585524154E-04  4.59473743778625E-02  0.00000000000000E+00
  2.67062462401875E-04 -4.21912827903584E-02 -0.00000000000000E+00
  2.68081168970817E-03 -1.49080945430450E-01 -0.00000000000000E+00
  3.46507695008595E-03 -2.23372884799564E-01 -0.00000000000000E+00
 -1.52202359700813E-03 -2.06158459972466E-01 -0.00000000000000E+00
 -6.28754908103662E-03  1.72648817658568E-01 -0.00000000000000E+00
  5.40673289426514E-03  5.81606956470228E-01  0.00000000000000E+00
 -4.24275350952710E-02  6.67096713281496E-02 -0.00000000000000E+00
  1.28536578820281E-02 -9.71199667026168E-02 -0.00000000000000E+00
 -6.28298300367094E-03 -5.67178790147630E-01 -0.00000000000000E+00
  4.32788823587513E-03 -1.73417818164106E-01 -0.00000000000000E+00
  1.08201417658372E-03  2.27878133108992E-01  0.00000000000000E+00
 -3.31114829843445E-03  2.23259722894686E-01 -0.00000000000000E+00
 -2.62607203458352E-03  1.40469472168704E-01 -0.00000000000000E+00
 -4.30318585524155E-04  4.59473743778625E-02 -0.00000000000000E+00
 -2.67062462401876E-04 -4.21912827903584E-02 -0.00000000000000E+00
 -2.68081168970817E-03 -1.49080945430450E-01 -0.00000000000000E+00
 -3.46507695008595E-03 -2.23372884799564E-01 -0.00000000000000E+00
  1.52202359700813E-03 -2.06158459972466E-01 -0.00000000000000E+00
  6.28754908103661E-03  1.72648817658568E-01  0.00000000000000E+00
 -5.40673289426514E-03  5.81606956470228E-01 -0.00000000000000E+00
  4.24275350952710E-02  6.67096713281496E-02  0.00000000000000E+00
 Total energy (etotal) [Ha]= -1.68407632272462E+02

 Difference of energy with previous step (new-old):
           Absolute (Ha)=-4.36361E-04
           Relative     =-2.59110E-06

--- Iteration: ( 7/10) Internal Cycle: (1/1)
--------------------------------------------------------------------------------

---SELF-CONSISTENT-FIELD CONVERGENCE--------------------------------------------

     iter   Etot(hartree)      deltaE(h)  residm     vres2
 ETOT  1  -168.40782631731    -1.684E+02 2.254E-05 1.608E+00
 ETOT  2  -168.40790676177    -8.044E-05 1.036E-05 3.596E-01
 ETOT  3  -168.40791987142    -1.311E-05 3.522E-06 2.458E-02
 ETOT  4  -168.40792117468    -1.303E-06 5.457E-06 2.533E-02
 ETOT  5  -168.40792126292    -8.824E-08 1.754E-06 2.096E-02
 ETOT  6  -168.40792126895    -6.031E-09 2.825E-06 8.219E-03

 At SCF step    6, etot is converged : 
  for the second time, diff in etot=  6.031E-09 < toldfe=  1.000E-06

 Cartesian components of stress tensor (hartree/bohr^3)
  sigma(1 1)=  2.04555498E-05  sigma(3 2)=  0.00000000E+00
  sigma(2 2)=  3.12526723E-05  sigma(3 1)=  0.00000000E+00
  sigma(3 3)=  2.30264510E-05  sigma(2 1)=  0.00000000E+00

 Integrated electronic density in atomic spheres:
 ------------------------------------------------
 Atom  Sphere_radius  Integrated_density
    1        2.00000          4.65935662
    2        2.00000          4.80341552
    3        2.00000          4.76613135
    4        2.00000          4.73071553
    5        2.00000          4.75311240
    6        2.00000          4.73789757
    7        2.00000          4.75813870
    8        2.00000          4.73994116
    9        2.00000          4.75425262
   10        2.00000          4.72401645
   11        2.00000          4.72926523
   12        2.00000          4.72732692
   13        2.00000          4.82003446
   14        2.00000          4.66284277
   15        2.00000          4.61568205
   16        2.00000          4.85441064
   17        2.00000          4.76037261
   18        2.00000          4.78816795
   19        2.00000          4.78016228
   20        2.00000          4.80859364
   21        2.00000          4.79724847
   22        2.00000          4.80550548
   23        2.00000          4.77959650
   24        2.00000          4.79436439
   25        2.00000          4.75799109
   26        2.00000          4.76871773
   27        2.00000          4.85174650
   28        2.00000          4.65172256

---OUTPUT-----------------------------------------------------------------------

 Cartesian coordinates (xcart) [bohr]
  1.75749182093169E-01  1.56249106372938E-01  9.30962224690006E-46
  4.05773433077222E+00  2.27351017933236E+00  9.30962224690006E-46
  3.74384062417218E-03  4.60532277309986E+00  9.30962224690006E-46
  4.02772650316081E+00  6.94405643811774E+00  9.30962224690006E-46
  2.10296449642661E-04  9.28361211132667E+00  1.24128296625334E-45
  4.02439241590947E+00  1.16129221059617E+01  9.30962224690006E-46
  1.74215711733585E-03  1.39413225914764E+01  0.00000000000000E+00
  4.02679475278724E+00  1.62695585709001E+01  9.30962224690006E-46
 -7.28140174906734E-04  1.85980104728961E+01  9.30962224690006E-46
  4.02533374651682E+00  2.09273968709247E+01  9.30962224690006E-46
  2.80381673897903E-03  2.32667459868189E+01  9.30962224690006E-46
  4.02892060795484E+00  2.56051826803008E+01  9.30962224690006E-46
  3.25446273854048E-02  2.79364828670449E+01  9.30962224690006E-46
  4.20305740971762E+00  3.00547213791669E+01  9.30962224690006E-46
  2.50766192660444E+00  1.56249106372938E-01  9.30962224690006E-46
 -1.37432322207461E+00  2.27351017933236E+00  9.30962224690006E-46
  2.67966726807344E+00  4.60532277309986E+00  9.30962224690006E-46
 -1.34431539446319E+00  6.94405643811774E+00  9.30962224690006E-46
  2.68320081224797E+00  9.28361211132667E+00  9.30962224690006E-46
 -1.34098130721186E+00  1.16129221059617E+01  6.20641483126670E-46
  2.68166895158028E+00  1.39413225914764E+01  9.30962224690006E-46
 -1.34338364408963E+00  1.62695585709001E+01  9.30962224690006E-46
  2.68413924887252E+00  1.85980104728961E+01  0.00000000000000E+00
[...]
    22       -0.000159557029      0.000055310704      0.000000000000
    23        0.000255776621      0.000143932121     -0.000000000000
    24       -0.000054085450      0.000189607724      0.000000000000
    25       -0.000618466256      0.000258781421      0.000000000000
    26       -0.000530633552      0.000256445524      0.000000000000
    27       -0.003925873696      0.000328256300      0.000000000000
    28       -0.022186301039     -0.001591290608     -0.000000000000

 Cartesian components of stress tensor (hartree/bohr^3)
  sigma(1 1)=  2.01326847E-05  sigma(3 2)=  0.00000000E+00
  sigma(2 2)=  3.03532132E-05  sigma(3 1)=  0.00000000E+00
  sigma(3 3)=  2.30281740E-05  sigma(2 1)=  0.00000000E+00

-Cartesian components of stress tensor (GPa)         [Pressure= -7.2095E-01 GPa]
- sigma(1 1)=  5.92323933E-01  sigma(3 2)=  0.00000000E+00
- sigma(2 2)=  8.93022212E-01  sigma(3 1)=  0.00000000E+00
- sigma(3 3)=  6.77512157E-01  sigma(2 1)=  0.00000000E+00

== END DATASET(S) ==============================================================
================================================================================
  
 -outvars: echo values of variables after computation  --------
            acell      8.0502333261E+00  1.0582466344E+02  5.6691783987E+01 Bohr
              amu      1.20110000E+01
           diemac      1.00000000E+01
             ecut      1.90000000E+01 Hartree
           etotal     -1.6840817077E+02
            fcart     -8.7085209457E-04  1.0254184595E-03 -0.0000000000E+00
                       1.7679198169E-04  2.8903773672E-04 -0.0000000000E+00
                      -5.7625236139E-05  1.1781079660E-04 -0.0000000000E+00
                      -1.9302590021E-04  1.6759105199E-03 -0.0000000000E+00
                       2.0011378482E-04  1.2406298148E-03 -0.0000000000E+00
                       2.5395658701E-04  4.7183183061E-04 -0.0000000000E+00
                      -8.1397672420E-05  1.0164432008E-04 -0.0000000000E+00
                      -9.8695212043E-05 -1.1792803654E-04 -0.0000000000E+00
                       2.5812126851E-04 -5.0860944089E-04 -0.0000000000E+00
                       2.0208388407E-04 -1.2313628486E-03 -0.0000000000E+00
                      -1.6257407228E-04 -1.6180490496E-03 -0.0000000000E+00
                      -9.2733664116E-05 -9.1863819754E-05 -0.0000000000E+00
                       1.5925716766E-04 -3.5503393115E-04 -0.0000000000E+00
                      -9.7198626598E-04 -9.9943635157E-04 -0.0000000000E+00
                       8.7085209457E-04  1.0254184595E-03 -0.0000000000E+00
                      -1.7679198169E-04  2.8903773672E-04 -0.0000000000E+00
                       5.7625236139E-05  1.1781079660E-04 -0.0000000000E+00
                       1.9302590021E-04  1.6759105199E-03 -0.0000000000E+00
                      -2.0011378482E-04  1.2406298148E-03 -0.0000000000E+00
                      -2.5395658701E-04  4.7183183061E-04 -0.0000000000E+00
                       8.1397672420E-05  1.0164432008E-04 -0.0000000000E+00
                       9.8695212043E-05 -1.1792803654E-04 -0.0000000000E+00
                      -2.5812126851E-04 -5.0860944089E-04 -0.0000000000E+00
                      -2.0208388407E-04 -1.2313628486E-03 -0.0000000000E+00
                       1.6257407228E-04 -1.6180490496E-03 -0.0000000000E+00
                       9.2733664116E-05 -9.1863819754E-05 -0.0000000000E+00
                      -1.5925716766E-04 -3.5503393115E-04 -0.0000000000E+00
                       9.7198626598E-04 -9.9943635157E-04 -0.0000000000E+00
-          fftalg         112
           getden          -1
           ionmov           2
           istwfk        2    0    0    0    0    0    0    0    3
              kpt      0.00000000E+00  0.00000000E+00  0.00000000E+00
                       6.25000000E-02  0.00000000E+00  0.00000000E+00
                       1.25000000E-01  0.00000000E+00  0.00000000E+00
                       1.87500000E-01  0.00000000E+00  0.00000000E+00
                       2.50000000E-01  0.00000000E+00  0.00000000E+00
                       3.12500000E-01  0.00000000E+00  0.00000000E+00
                       3.75000000E-01  0.00000000E+00  0.00000000E+00
                       4.37500000E-01  0.00000000E+00  0.00000000E+00
                       5.00000000E-01  0.00000000E+00  0.00000000E+00
         kptrlatt       16    0    0      0    1    0      0    0    1
          kptrlen      1.28803733E+02
P           mkmem           9
            natom          28
            nband          60
            ngfft          32     432     225
             nkpt           9
            nstep          10
             nsym           4
            ntime          10
           ntypat           1
              occ      2.000000  2.000000  2.000000  2.000000  2.000000  2.000000
                       2.000000  2.000000  2.000000  2.000000  2.000000  2.000000
                       2.000000  2.000000  2.000000  2.000000  2.000000  2.000000
                       2.000000  2.000000  2.000000  2.000000  2.000000  2.000000
                       2.000000  2.000000  2.000000  2.000000  2.000000  2.000000
                       2.000000  2.000000  2.000000  2.000000  2.000000  2.000000
                       2.000000  2.000000  2.000000  2.000000  2.000000  2.000000
                       2.000000  2.000000  2.000000  2.000000  2.000000  2.000000
                       2.000000  2.000000  2.000000  2.000000  2.000000  2.000000
                       2.000000  2.000000  0.000000  0.000000  0.000000  0.000000
          spgroup          25
           strten      2.0132684664E-05  3.0353213150E-05  2.3028174027E-05
                       0.0000000000E+00  0.0000000000E+00  0.0000000000E+00
           symrel      1  0  0   0  1  0   0  0  1      -1  0  0   0  1  0   0  0 -1
                       1  0  0   0  1  0   0  0 -1      -1  0  0   0  1  0   0  0  1
            tnons      0.0000000  0.0000000  0.0000000     0.3333333  0.0000000  0.0000000
                       0.0000000  0.0000000  0.0000000     0.3333333  0.0000000  0.0000000
           toldfe      1.00000000E-06 Hartree
           tolmxf      5.00000000E-04
            typat      1  1  1  1  1  1  1  1  1  1  1  1  1  1  1  1  1  1  1  1
                       1  1  1  1  1  1  1  1
              wtk        0.06250    0.12500    0.12500    0.12500    0.12500    0.12500
                         0.12500    0.12500    0.06250
           xangst      9.4480947885E-02  8.9047015218E-02  3.3087719839E-30
                       2.1467100117E+00  1.2114094373E+00  3.2876387776E-30
                       2.2474140140E-03  2.4450942019E+00  3.3662712554E-30
                       2.1326558578E+00  3.6746962043E+00  3.3331536151E-30
                       2.2274853768E-04  4.9084018295E+00 -1.0717608007E-29
                       2.1289059601E+00  6.1407958192E+00  3.3510383966E-30
                       6.6686262080E-04  7.3755370741E+00 -1.8997665017E-29
                       2.1306797129E+00  8.6113873994E+00  3.3269550165E-30
                      -1.0896084052E-03  9.8461101988E+00  3.3087719839E-30
                       2.1302304040E+00  1.1078418033E+01  3.3087719839E-30
                       2.6346662490E-03  1.2312051760E+01  3.3076165214E-30
                       2.1322604989E+00  1.3541680949E+01  3.3259735935E-30
                       1.6724221946E-02  1.4775452353E+01  3.3087719839E-30
                       2.2245136424E+00  1.5897717726E+01  3.3087719839E-30
                       1.3255190521E+00  8.9047015218E-02  3.3087719839E-30
                      -7.2671001173E-01  1.2114094373E+00  4.7228880142E-30
                       1.4177525860E+00  2.4450942019E+00  3.2905889513E-30
                      -7.1265585784E-01  3.6746962043E+00  3.3087719839E-30
                       1.4197772515E+00  4.9084018295E+00  3.3087719839E-30
                      -7.0890596013E-01  6.1407958192E+00 -8.0913153231E-30
                       1.4193331374E+00  7.3755370741E+00  3.3087719839E-30
                      -7.1067971294E-01  8.6113873994E+00  3.3087719839E-30
                       1.4210896084E+00  9.8461101988E+00 -3.1852524742E-29
                      -7.1023040402E-01  1.1078418033E+01  3.3087719839E-30
                       1.4173653338E+00  1.2312051760E+01  3.3204566425E-30
                      -7.1226049893E-01  1.3541680949E+01  1.8906280678E-29
                       1.4032757781E+00  1.4775452353E+01  3.3087719839E-30
                      -8.0451364243E-01  1.5897717726E+01 -2.3585012180E-29
            xcart      1.7854311628E-01  1.6827447171E-01  6.2526728858E-30
                       4.0566940089E+00  2.2892320714E+00  6.2127369134E-30
                       4.2469969937E-03  4.6205584107E+00  6.3613307617E-30
                       4.0301355070E+00  6.9441694477E+00  6.2987474913E-30
                       4.2093373272E-04  9.2755352079E+00 -2.0253343933E-29
                       4.0230492273E+00  1.1604422336E+01  6.3325448304E-30
                       1.2601877216E-03  1.3937745153E+01 -3.5900384046E-29
                       4.0264011344E+00  1.6273163809E+01  6.2870338376E-30
                      -2.0590614778E-03  1.8606451750E+01  6.2526728858E-30
                       4.0255520635E+00  2.0935176067E+01  6.2526728858E-30
                       4.9787976622E-03  2.3266405960E+01  6.2504893781E-30
                       4.0293883870E+00  2.5590068373E+01  6.2851792169E-30
                       3.1604199263E-02  2.7921558436E+01  6.2526728858E-30
                       4.2037215631E+00  3.0042332640E+01  6.2526728858E-30
                       2.5048679924E+00  1.6827447171E-01  6.2526728858E-30
                      -1.3732829002E+00  2.2892320714E+00  8.9249649031E-30
                       2.6791641117E+00  4.6205584107E+00  6.2183119339E-30
                      -1.3467243983E+00  6.9441694477E+00  6.2526728858E-30
                       2.6829901750E+00  9.2755352079E+00  6.2526728858E-30
                      -1.3396381186E+00  1.1604422336E+01 -1.5290370015E-29
                       2.6821509210E+00  1.3937745153E+01  6.2526728858E-30
                      -1.3429900257E+00  1.6273163809E+01  6.2526728858E-30
                       2.6854701702E+00  1.8606451750E+01 -6.0192548404E-29
                      -1.3421409548E+00  2.0935176067E+01  6.2526728858E-30
                       2.6784323110E+00  2.3266405960E+01  6.2747536905E-30
                      -1.3459772783E+00  2.5590068373E+01  3.5727692672E-29
                       2.6518069094E+00  2.7921558436E+01  6.2526728858E-30
                      -1.5203104544E+00  3.0042332640E+01 -4.4569213861E-29
             xred      2.2178626264E-02  1.5901252718E-03  1.1029239946E-31
                       5.0392253796E-01  2.1632311381E-02  1.0958795925E-31
                       5.2756197513E-04  4.3662396463E-02  1.1220904185E-31
                       5.0062344081E-01  6.5619575077E-02  1.1110512050E-31
                       5.2288389128E-05  8.7650032669E-02 -3.5725360023E-31
                       4.9974318313E-01  1.0965706820E-01  1.1170127989E-31
                       1.5654052132E-04  1.3170601918E-01 -6.3325550055E-31
                       5.0015955703E-01  1.5377477499E-01  1.1089850055E-31
                      -2.5577662093E-04  1.7582339641E-01  1.1029239946E-31
                       5.0005408545E-01  1.9782889344E-01  1.1029239946E-31
                       6.1846625564E-04  2.1985806714E-01  1.1025388405E-31
                       5.0053063355E-01  2.4181573124E-01  1.1086578645E-31
                       3.9258736961E-03  2.6384736344E-01  1.1029239946E-31
                       5.2218630104E-01  2.8388781654E-01  1.1029239946E-31
                       3.1115470707E-01  1.5901252718E-03  1.1029239946E-31
                      -1.7058920463E-01  2.1632311381E-02  1.5742960047E-31
                       3.3280577136E-01  4.3662396463E-02  1.0968629838E-31
                      -1.6729010747E-01  6.5619575077E-02  1.1029239946E-31
                       3.3328104494E-01  8.7650032669E-02  1.1029239946E-31
                      -1.6640984980E-01  1.0965706820E-01 -2.6971051077E-31
                       3.3317679281E-01  1.3170601918E-01  1.1029239946E-31
                      -1.6682622370E-01  1.5377477499E-01  1.1029239946E-31
                       3.3358910995E-01  1.7582339641E-01 -1.0617508247E-30
                      -1.6672075212E-01  1.9782889344E-01  1.1029239946E-31
                       3.3271486708E-01  2.1985806714E-01  1.1068188808E-31
                      -1.6719730022E-01  2.4181573124E-01  6.3020935593E-31
                       3.2940745964E-01  2.6384736344E-01  1.1029239946E-31
                      -1.8885296771E-01  2.8388781654E-01 -7.8616707268E-31
            znucl        6.00000

================================================================================

- Total cpu        time (s,m,h):      80429.8     1340.50     22.342
- Total wall clock time (s,m,h):      79709.8     1328.50     22.142
-
- For major independent code sections, cpu and wall times (sec),
-  as well as % of the time and number of calls for node 0-
-<BEGIN_TIMER mpi_nprocs = 1, omp_nthreads = 1, mpi_rank = 0>
- cpu_time =        80429.8, wall_time =        79709.8
-
- routine                        cpu     %       wall     %      number of calls  Gflops    Speedup Efficacity
-                                                                  (-1=no count)
- projbd                     37890.438  47.1  37893.477  47.5         363130      -1.00        1.00       1.00
- fourwf%(pot)               28114.760  35.0  28114.367  35.3         227465      -1.00        1.00       1.00
- nonlop(apply)               7011.747   8.7   7011.597   8.8         227465      -1.00        1.00       1.00
- fourwf%(den)                2182.271   2.7   2182.816   2.7          32760      -1.00        1.00       1.00
- vtowfk(ssdiag)              1931.698   2.4   1334.426   1.7             -1      -1.00        1.45       1.45
- others (108)                 633.802   0.8    621.106   0.8             -1      -1.00        1.02       1.02
-<END_TIMER>
-
- subtotal                   77764.715  96.7  77157.789  96.8                                  1.01       1.01

- For major independent code sections, cpu and wall times (sec),
- as well as % of the total time and number of calls 

-<BEGIN_TIMER mpi_nprocs = 1, omp_nthreads = 1, mpi_rank = world>
- cpu_time =       80429.8, wall_time =       79709.8
-
- routine                         cpu     %       wall     %      number of calls Gflops    Speedup Efficacity
-                                                                  (-1=no count)
- projbd                     37890.438  47.1  37893.477  47.5         363130      -1.00        1.00       1.00
- fourwf%(pot)               28114.760  35.0  28114.367  35.3         227465      -1.00        1.00       1.00
- nonlop(apply)               7011.747   8.7   7011.597   8.8         227465      -1.00        1.00       1.00
- fourwf%(den)                2182.271   2.7   2182.816   2.7          32760      -1.00        1.00       1.00
- vtowfk(ssdiag)              1931.698   2.4   1334.426   1.7             -1      -1.00        1.45       1.45
- others (108)                 633.802   0.8    621.106   0.8             -1      -1.00        1.02       1.02
-<END_TIMER>

- subtotal                   77764.715  96.7  77157.789  96.8                                  1.01       1.01

================================================================================

 Suggested references for the acknowledgment of ABINIT usage.

 The users of ABINIT have little formal obligations with respect to the ABINIT group
 (those specified in the GNU General Public License, http://www.gnu.org/copyleft/gpl.txt).
 However, it is common practice in the scientific literature,
 to acknowledge the efforts of people that have made the research possible.
 In this spirit, please find below suggested citations of work written by ABINIT developers,
 corresponding to implementations inside of ABINIT that you have used in the present run.
 Note also that it will be of great value to readers of publications presenting these results,
 to read papers enabling them to understand the theoretical formalism and details
 of the ABINIT implementation.
 For information on why they are suggested, see also http://www.abinit.org/about/?text=acknowledgments.
-
- [1] Recent developments in the ABINIT software package.
- Computer Phys. Comm. 205, 106 (2016).
- X.Gonze, F.Jollet, F.Abreu Araujo, D.Adams, B.Amadon, T.Applencourt,
- C.Audouze, J.-M.Beuken, J.Bieder, A.Bokhanchuk, E.Bousquet, F.Bruneval
- D.Caliste, M.Cote, F.Dahm, F.Da Pieve, M.Delaveau, M.Di Gennaro,
- B.Dorado, C.Espejo, G.Geneste, L.Genovese, A.Gerossier, M.Giantomassi,
- Y.Gillet, D.R.Hamann, L.He, G.Jomard, J.Laflamme Janssen, S.Le Roux,
- A.Levitt, A.Lherbier, F.Liu, I.Lukacevic, A.Martin, C.Martins,
- M.J.T.Oliveira, S.Ponce, Y.Pouillon, T.Rangel, G.-M.Rignanese,
- A.H.Romero, B.Rousseau, O.Rubel, A.A.Shukri, M.Stankovski, M.Torrent,
- M.J.Van Setten, B.Van Troeye, M.J.Verstraete, D.Waroquier, J.Wiktor,
- B.Xue, A.Zhou, J.W.Zwanziger.
- Comment : the fourth generic paper describing the ABINIT project.
- Note that a version of this paper, that is not formatted for Computer Phys. Comm. 
- is available at http://www.abinit.org/about/ABINIT16.pdf .
- The licence allows the authors to put it on the Web.
-
- [2] ABINIT : First-principles approach of materials and nanosystem properties.
- Computer Phys. Comm. 180, 2582-2615 (2009).
- X. Gonze, B. Amadon, P.-M. Anglade, J.-M. Beuken, F. Bottin, P. Boulanger, F. Bruneval,
- D. Caliste, R. Caracas, M. Cote, T. Deutsch, L. Genovese, Ph. Ghosez, M. Giantomassi
- S. Goedecker, D.R. Hamann, P. Hermet, F. Jollet, G. Jomard, S. Leroux, M. Mancini, S. Mazevet,
- M.J.T. Oliveira, G. Onida, Y. Pouillon, T. Rangel, G.-M. Rignanese, D. Sangalli, R. Shaltaf,
- M. Torrent, M.J. Verstraete, G. Zerah, J.W. Zwanziger
- Comment : the third generic paper describing the ABINIT project.
- Note that a version of this paper, that is not formatted for Computer Phys. Comm. 
- is available at http://www.abinit.org/about/ABINIT_CPC_v10.pdf .
- The licence allows the authors to put it on the Web.
-
- [3] A brief introduction to the ABINIT software package.
- Z. Kristallogr. 220, 558-562 (2005).
- X. Gonze, G.-M. Rignanese, M. Verstraete, J.-M. Beuken, Y. Pouillon, R. Caracas, F. Jollet,
- M. Torrent, G. Zerah, M. Mikami, Ph. Ghosez, M. Veithen, J.-Y. Raty, V. Olevano, F. Bruneval,
- L. Reining, R. Godby, G. Onida, D.R. Hamann, and D.C. Allan.
- Comment : the second generic paper describing the ABINIT project. Note that this paper
- should be cited especially if you are using the GW part of ABINIT, as several authors
- of this part are not in the list of authors of the first or third paper.
- The .pdf of the latter paper is available at http://www.abinit.org/about/zfk_0505-06_558-562.pdf.
- Note that it should not redistributed (Copyright by Oldenburg Wissenshaftverlag,
- the licence allows the authors to put it on the Web).
-
- And optionally:
-
- [4] First-principles computation of material properties : the ABINIT software project. 
- X. Gonze, J.-M. Beuken, R. Caracas, F. Detraux, M. Fuchs, G.-M. Rignanese, L. Sindic,
- M. Verstraete, G. Zerah, F. Jollet, M. Torrent, A. Roy, M. Mikami, Ph. Ghosez, J.-Y. Raty, D.C. Allan.
- Computational Materials Science 25, 478-492 (2002). http://dx.doi.org/10.1016/S0927-0256(02)00325-7
- Comment : the original paper describing the ABINIT project.
-
- Proc.   0 individual time (sec): cpu=      80429.8  wall=      79709.8

================================================================================

 Calculation completed.
.Delivered  22 WARNINGs and   2 COMMENTs to log file.
+Overall time at end (sec) : cpu=      80429.8  wall=      79709.8
