  ABINIT 8.4.1
  
  Give name for formatted input file: 
agnr_3.in
  Give name for formatted output file:
agnr_3.out
  Give root name for generic input files:
agnr_3i
  Give root name for generic output files:
agnr_3o
  Give root name for generic temporary files:
agnr_3

--- !COMMENT
src_file: isfile.F90
src_line: 109
message: |
    Output file agnr_3.out
     already exists.
...


--- !COMMENT
src_file: isfile.F90
src_line: 133
message: |
    Renaming old agnr_3.out to agnr_3.out0004
...


.Version 8.4.1 of ABINIT 
.(sequential version, prepared for a x86_64_linux_gnu7.0 computer) 

.Copyright (C) 1998-2017 ABINIT group . 
 ABINIT comes with ABSOLUTELY NO WARRANTY.
 It is free software, and you are welcome to redistribute it
 under certain conditions (GNU General Public License,
 see ~abinit/COPYING or http://www.gnu.org/copyleft/gpl.txt).

 ABINIT is a project of the Universite Catholique de Louvain,
 Corning Inc. and other collaborators, see ~abinit/doc/developers/contributors.txt .
 Please read ~abinit/doc/users/acknowledgments.html for suggested
 acknowledgments of the ABINIT effort.
 For more information, see http://www.abinit.org .

.Starting date : Tue 15 Aug 2017.
- ( at 14h46 )
  

 ++++++++++++++++++++++++++++++++++++++++++++++++++++++++++++++++++++++++++++++

 === Build Information === 
  Version       : 8.4.1
  Build target  : x86_64_linux_gnu7.0
  Build date    : 20170802

 === Compiler Suite === 
  C compiler       : gnu[trunk
  C++ compiler     : gnu[trunk
  Fortran compiler : gnu7.0
  CFLAGS           :  -g -O2 -mtune=native -march=native
  CXXFLAGS         :  -g -O2 -mtune=native -march=native
  FCFLAGS          :  -g -ffree-line-length-none
  FC_LDFLAGS       : 

 === Optimizations === 
  Debug level        : basic
  Optimization level : standard
  Architecture       : intel_xeon

 === Multicore === 
  Parallel build : no
  Parallel I/O   : no
  openMP support : no
  GPU support    : no

 === Connectors / Fallbacks === 
  Connectors on : yes
  Fallbacks on  : yes
  DFT flavor    : none
  FFT flavor    : none
  LINALG flavor : netlib
  MATH flavor   : none
  TIMER flavor  : abinit
  TRIO flavor   : none

 === Experimental features === 
  Bindings            : @enable_bindings@
  Exports             : no
  GW double-precision : no

 ++++++++++++++++++++++++++++++++++++++++++++++++++++++++++++++++++++++++++++++


 ++++++++++++++++++++++++++++++++++++++++++++++++++++++++++++++++++++++++++++++
 Default optimizations:
   -O2 -mtune=native -march=native


 Optimizations for 20_datashare:
   -O0


 ++++++++++++++++++++++++++++++++++++++++++++++++++++++++++++++++++++++++++++++


 ++++++++++++++++++++++++++++++++++++++++++++++++++++++++++++++++++++++++++++++
 CPP options activated during the build:

                    CC_GNU                   CXX_GNU                    FC_GNU
 
 HAVE_FC_ALLOCATABLE_DT...             HAVE_FC_ASYNC         HAVE_FC_BACKTRACE
 
  HAVE_FC_COMMAND_ARGUMENT      HAVE_FC_COMMAND_LINE        HAVE_FC_CONTIGUOUS
 
           HAVE_FC_CPUTIME              HAVE_FC_EXIT             HAVE_FC_FLUSH
 
             HAVE_FC_GAMMA            HAVE_FC_GETENV   HAVE_FC_IEEE_EXCEPTIONS
 
          HAVE_FC_INT_QUAD             HAVE_FC_IOMSG     HAVE_FC_ISO_C_BINDING
 
  HAVE_FC_ISO_FORTRAN_2008        HAVE_FC_LONG_LINES        HAVE_FC_MOVE_ALLOC
 
           HAVE_FC_PRIVATE         HAVE_FC_PROTECTED         HAVE_FC_STREAM_IO
 
            HAVE_FC_SYSTEM          HAVE_FORTRAN2003        HAVE_LIBPAW_ABINIT
 
      HAVE_LIBTETRA_ABINIT               HAVE_LINALG        HAVE_LINALG_SERIAL
 
             HAVE_OS_LINUX         HAVE_TIMER_ABINIT              USE_MACROAVE
 
 ++++++++++++++++++++++++++++++++++++++++++++++++++++++++++++++++++++++++++++++

- input  file    -> agnr_3.in
- output file    -> agnr_3.out
- root for input  files -> agnr_3i
- root for output files -> agnr_3o

-instrng: 86 lines of input have been read from file agnr_3.in


 Please give name of formatted atomic psp file
 iofn2 : for atom type 1, psp file is ./6c.pspnc
  read the values zionpsp=  4.0 , pspcod=   1 , lmax=   1

 inpspheads: deduce mpsang = 2, n1xccc = 2501.
 invars1 : treat image number: 1

 symlatt : the Bravais lattice is oP (primitive orthorhombic)
  xangst is defined in input file
 ingeo : takes atomic coordinates from input array xangst
  symfind : exit, nsym=           4
    symrel matrices, symafm and tnons are :
   1       1   0   0     0   1   0     0   0   1       1      0.0000  0.0000  0.0000
   2      -1   0   0     0   1   0     0   0  -1       1      0.3333  0.0000  0.0000
   3       1   0   0     0   1   0     0   0  -1       1      0.0000  0.0000  0.0000
   4      -1   0   0     0   1   0     0   0   1       1      0.3333  0.0000  0.0000

 symlatt : the Bravais lattice is oP (primitive orthorhombic)

 symlatt : the Bravais lattice is oP (primitive orthorhombic)
 symspgr : spgroup=  25  Pm m 2   (=C2v^1)
 ingeo : angdeg(1:3)=   90.00000000   90.00000000   90.00000000
 invars2: take the default value of fband=  1.25000000E-01
 chkneu : initialized the occupation numbers for occopt=    1, spin-unpolarized or antiferromagnetic case :
  2.00  2.00  2.00  2.00  2.00  2.00  2.00  2.00  2.00  2.00  2.00  2.00
  2.00  2.00  2.00  2.00  2.00  2.00  2.00  2.00  2.00  2.00  2.00  2.00
  2.00  2.00  2.00  2.00  2.00  2.00  2.00  2.00  2.00  2.00  2.00  2.00
  2.00  2.00  2.00  2.00  2.00  2.00  2.00  2.00  2.00  2.00  2.00  2.00
  2.00  2.00  2.00  2.00  2.00  2.00  2.00  2.00  0.00  0.00  0.00  0.00
mpi_setup: mkmem  undefined in the input file.Use default mkmem  = nkpt
 mpi_setup: With nkpt_me=9 and mkmem  = 9, ground state wf handled in core.
mpi_setup: mkqmem undefined in the input file.Use default mkqmem = nkpt
 mpi_setup: With nkpt_me=9 and mkqmem = 9, ground state wf handled in core.
mpi_setup: mk1mem undefined in the input file.Use default mk1mem = nkpt
 mpi_setup: With nkpt_me=9 and mk1mem = 9, ground state wf handled in core.
 For input ecut=  1.900000E+01 best grid ngfft=      32     432     225
       max ecut=  1.926041E+01
 input values of ngfft(1) = 32 ngfft(2) =432 ngfft(3) =225 are alright and will be used

 ==== FFT mesh ====
  FFT mesh divisions ........................    32  432  225
  Augmented FFT divisions ...................    33  433  225
  FFT algorithm .............................   112
  FFT cache size ............................    16
 getmpw: optimal value of mpw= 191372

 Symmetries : space group Pm m 2 (# 25); Bravais oP (primitive ortho.)

 getdim_nloc : deduce lmnmax  =   1, lnmax  =   1,
                      lmnmaxso=   1, lnmaxso=   1.
memory : analysis of memory needs
================================================================================
 Values of the parameters that define the memory need of the present run
     intxc =       0    ionmov =       2      iscf =       7    lmnmax =       1
     lnmax =       1     mgfft =     432  mpssoang =       2    mqgrid =   20765
     natom =      28  nloc_mem =       1    nspden =       1   nspinor =       1
    nsppol =       1      nsym =       4    n1xccc =    2501    ntypat =       1
    occopt =       1   xclevel =       1
-    mband =          60        mffmem =           1         mkmem =           9
       mpw =      191372          nfft =     3110400          nkpt =           9
================================================================================
P This job should need less than                    2513.420 Mbytes of memory.
  Rough estimation (10% accuracy) of disk space for files :
_ WF disk file :   1576.859 Mbytes ; DEN or POT disk file :     23.732 Mbytes.
================================================================================

 Biggest array : cg(disk), with   1576.8587 MBytes.
 memana : allocated an array of   1576.859 Mbytes, for testing purposes.
 memana: allocated    2513.420Mbytes, for testing purposes. 
 The job will continue.
--------------------------------------------------------------------------------
------------- Echo of variables that govern the present computation ------------
--------------------------------------------------------------------------------
-
- outvars: echo of selected default values                                      
-   iomode0 =  0 , fftalg0 =112 , wfoptalg0 =  0
-
- outvars: echo of global parameters not present in the input file              
-  max_nthreads =    0
-
 -outvars: echo values of preprocessed input variables --------
            acell      8.0502333261E+00  1.0582466344E+02  5.6691783987E+01 Bohr
              amu      1.20110000E+01
           diemac      1.00000000E+01
             ecut      1.90000000E+01 Hartree
-          fftalg         112
           getden          -1
           ionmov           2
           istwfk        2    0    0    0    0    0    0    0    3
              kpt      0.00000000E+00  0.00000000E+00  0.00000000E+00
                       6.25000000E-02  0.00000000E+00  0.00000000E+00
                       1.25000000E-01  0.00000000E+00  0.00000000E+00
                       1.87500000E-01  0.00000000E+00  0.00000000E+00
                       2.50000000E-01  0.00000000E+00  0.00000000E+00
                       3.12500000E-01  0.00000000E+00  0.00000000E+00
                       3.75000000E-01  0.00000000E+00  0.00000000E+00
                       4.37500000E-01  0.00000000E+00  0.00000000E+00
                       5.00000000E-01  0.00000000E+00  0.00000000E+00
         kptrlatt       16    0    0      0    1    0      0    0    1
          kptrlen      1.28803733E+02
P           mkmem           9
            natom          28
            nband          60
            ngfft          32     432     225
             nkpt           9
            nstep          10
             nsym           4
            ntime          10
           ntypat           1
              occ      2.000000  2.000000  2.000000  2.000000  2.000000  2.000000
                       2.000000  2.000000  2.000000  2.000000  2.000000  2.000000
                       2.000000  2.000000  2.000000  2.000000  2.000000  2.000000
                       2.000000  2.000000  2.000000  2.000000  2.000000  2.000000
                       2.000000  2.000000  2.000000  2.000000  2.000000  2.000000
                       2.000000  2.000000  2.000000  2.000000  2.000000  2.000000
                       2.000000  2.000000  2.000000  2.000000  2.000000  2.000000
                       2.000000  2.000000  2.000000  2.000000  2.000000  2.000000
                       2.000000  2.000000  2.000000  2.000000  2.000000  2.000000
                       2.000000  2.000000  0.000000  0.000000  0.000000  0.000000
          spgroup          25
           symrel      1  0  0   0  1  0   0  0  1      -1  0  0   0  1  0   0  0 -1
                       1  0  0   0  1  0   0  0 -1      -1  0  0   0  1  0   0  0  1
            tnons      0.0000000  0.0000000  0.0000000     0.3333333  0.0000000  0.0000000
                       0.0000000  0.0000000  0.0000000     0.3333333  0.0000000  0.0000000
           toldfe      1.00000000E-06 Hartree
           tolmxf      5.00000000E-04
            typat      1  1  1  1  1  1  1  1  1  1  1  1  1  1  1  1  1  1  1  1
                       1  1  1  1  1  1  1  1
              wtk        0.06250    0.12500    0.12500    0.12500    0.12500    0.12500
                         0.12500    0.12500    0.06250
           xangst      0.0000000000E+00  0.0000000000E+00  0.0000000000E+00
                       2.1300000000E+00  1.2297600000E+00  0.0000000000E+00
                       0.0000000000E+00  2.4595100000E+00  0.0000000000E+00
                       2.1300000000E+00  3.6892700000E+00  0.0000000000E+00
                       0.0000000000E+00  4.9190200000E+00  0.0000000000E+00
                       2.1300000000E+00  6.1487800000E+00  0.0000000000E+00
                       0.0000000000E+00  7.3785400000E+00  0.0000000000E+00
                       2.1300000000E+00  8.6082900000E+00  0.0000000000E+00
                       0.0000000000E+00  9.8380500000E+00  0.0000000000E+00
                       2.1300000000E+00  1.1067800000E+01  0.0000000000E+00
                       0.0000000000E+00  1.2297560000E+01  0.0000000000E+00
                       2.1300000000E+00  1.3527320000E+01  0.0000000000E+00
                       0.0000000000E+00  1.4757070000E+01  0.0000000000E+00
                       2.1300000000E+00  1.5986830000E+01  0.0000000000E+00
                       1.4200000000E+00  0.0000000000E+00  0.0000000000E+00
                      -7.1000000000E-01  1.2297600000E+00  0.0000000000E+00
                       1.4200000000E+00  2.4595100000E+00  0.0000000000E+00
                      -7.1000000000E-01  3.6892700000E+00  0.0000000000E+00
                       1.4200000000E+00  4.9190200000E+00  0.0000000000E+00
                      -7.1000000000E-01  6.1487800000E+00  0.0000000000E+00
                       1.4200000000E+00  7.3785400000E+00  0.0000000000E+00
                      -7.1000000000E-01  8.6082900000E+00  0.0000000000E+00
                       1.4200000000E+00  9.8380500000E+00  0.0000000000E+00
                      -7.1000000000E-01  1.1067800000E+01  0.0000000000E+00
                       1.4200000000E+00  1.2297560000E+01  0.0000000000E+00
                      -7.1000000000E-01  1.3527320000E+01  0.0000000000E+00
                       1.4200000000E+00  1.4757070000E+01  0.0000000000E+00
                      -7.1000000000E-01  1.5986830000E+01  0.0000000000E+00
            xcart      0.0000000000E+00  0.0000000000E+00  0.0000000000E+00
                       4.0251166630E+00  2.3239096092E+00  0.0000000000E+00
                       0.0000000000E+00  4.6478003211E+00  0.0000000000E+00
                       4.0251166630E+00  6.9717099303E+00  0.0000000000E+00
                       0.0000000000E+00  9.2956006422E+00  0.0000000000E+00
                       4.0251166630E+00  1.1619510251E+01  0.0000000000E+00
                       0.0000000000E+00  1.3943419861E+01  0.0000000000E+00
                       4.0251166630E+00  1.6267310572E+01  0.0000000000E+00
                       0.0000000000E+00  1.8591220182E+01  0.0000000000E+00
                       4.0251166630E+00  2.0915110894E+01  0.0000000000E+00
                       0.0000000000E+00  2.3239020503E+01  0.0000000000E+00
                       4.0251166630E+00  2.5562930112E+01  0.0000000000E+00
                       0.0000000000E+00  2.7886820824E+01  0.0000000000E+00
                       4.0251166630E+00  3.0210730433E+01  0.0000000000E+00
                       2.6834111087E+00  0.0000000000E+00  0.0000000000E+00
                      -1.3417055543E+00  2.3239096092E+00  0.0000000000E+00
                       2.6834111087E+00  4.6478003211E+00  0.0000000000E+00
                      -1.3417055543E+00  6.9717099303E+00  0.0000000000E+00
                       2.6834111087E+00  9.2956006422E+00  0.0000000000E+00
                      -1.3417055543E+00  1.1619510251E+01  0.0000000000E+00
                       2.6834111087E+00  1.3943419861E+01  0.0000000000E+00
                      -1.3417055543E+00  1.6267310572E+01  0.0000000000E+00
                       2.6834111087E+00  1.8591220182E+01  0.0000000000E+00
                      -1.3417055543E+00  2.0915110894E+01  0.0000000000E+00
                       2.6834111087E+00  2.3239020503E+01  0.0000000000E+00
                      -1.3417055543E+00  2.5562930112E+01  0.0000000000E+00
                       2.6834111087E+00  2.7886820824E+01  0.0000000000E+00
                      -1.3417055543E+00  3.0210730433E+01  0.0000000000E+00
             xred      0.0000000000E+00  0.0000000000E+00  0.0000000000E+00
                       5.0000000000E-01  2.1960000000E-02  0.0000000000E+00
                       0.0000000000E+00  4.3919821429E-02  0.0000000000E+00
                       5.0000000000E-01  6.5879821429E-02  0.0000000000E+00
                       0.0000000000E+00  8.7839642857E-02  0.0000000000E+00
                       5.0000000000E-01  1.0979964286E-01  0.0000000000E+00
                       0.0000000000E+00  1.3175964286E-01  0.0000000000E+00
                       5.0000000000E-01  1.5371946429E-01  0.0000000000E+00
                       0.0000000000E+00  1.7567946429E-01  0.0000000000E+00
                       5.0000000000E-01  1.9763928571E-01  0.0000000000E+00
                       0.0000000000E+00  2.1959928571E-01  0.0000000000E+00
                       5.0000000000E-01  2.4155928571E-01  0.0000000000E+00
                       0.0000000000E+00  2.6351910714E-01  0.0000000000E+00
                       5.0000000000E-01  2.8547910714E-01  0.0000000000E+00
                       3.3333333333E-01  0.0000000000E+00  0.0000000000E+00
                      -1.6666666667E-01  2.1960000000E-02  0.0000000000E+00
                       3.3333333333E-01  4.3919821429E-02  0.0000000000E+00
                      -1.6666666667E-01  6.5879821429E-02  0.0000000000E+00
                       3.3333333333E-01  8.7839642857E-02  0.0000000000E+00
                      -1.6666666667E-01  1.0979964286E-01  0.0000000000E+00
                       3.3333333333E-01  1.3175964286E-01  0.0000000000E+00
                      -1.6666666667E-01  1.5371946429E-01  0.0000000000E+00
                       3.3333333333E-01  1.7567946429E-01  0.0000000000E+00
                      -1.6666666667E-01  1.9763928571E-01  0.0000000000E+00
                       3.3333333333E-01  2.1959928571E-01  0.0000000000E+00
                      -1.6666666667E-01  2.4155928571E-01  0.0000000000E+00
                       3.3333333333E-01  2.6351910714E-01  0.0000000000E+00
                      -1.6666666667E-01  2.8547910714E-01  0.0000000000E+00
            znucl        6.00000

================================================================================

 chkinp: Checking input parameters for consistency.
 DATA TYPE INFORMATION: 
 REAL:      Data type name: REAL(DP) 
            Kind value:      8
            Precision:      15
            Smallest nonnegligible quantity relative to 1:  0.22204460E-15
            Smallest positive number:                       0.22250739-307
            Largest representable number:                   0.17976931+309
 INTEGER:   Data type name: INTEGER(default) 
            Kind value: 4
            Bit size:   32
            Largest representable number: 2147483647
 LOGICAL:   Data type name: LOGICAL 
            Kind value: 4
 CHARACTER: Data type name: CHARACTER             Kind value: 1

  ==== OpenMP parallelism is OFF ====
 
  MPI-IO support is OFF

================================================================================
== DATASET  1 ==================================================================
-   nproc =    1


 getdim_nloc : deduce lmnmax  =   1, lnmax  =   1,
                      lmnmaxso=   1, lnmaxso=   1.
 Exchange-correlation functional for the present dataset will be:
  LDA: new Teter (4/93) with spin-polarized option - ixc=1
 Citation for XC functional:
  S. Goedecker, M. Teter, J. Huetter, PRB 54, 1703 (1996)

 Unit cell volume ucvol=  4.8296481E+04 bohr^3
 Angles (23,13,12)=  9.00000000E+01  9.00000000E+01  9.00000000E+01 degrees

 getcut: wavevector=  0.0000  0.0000  0.0000  ngfft=  32 432 225
         ecut(hartree)=     19.000   => boxcut(ratio)=   2.01366
- pspini: atom type   1  psp file is ./6c.pspnc
- pspatm: opening atomic psp file    ./6c.pspnc
-  Troullier-Martins psp for element  C         Thu Oct 27 17:29:33 EDT 1994
-  6.00000   4.00000    940714                znucl, zion, pspdat
    1    1    1    1      2001   0.00000      pspcod,pspxc,lmax,lloc,mmax,r2well
    0  10.372  24.987    1   1.4850707        l,e99.0,e99.9,nproj,rcpsp
   0.00000000   0.00000000   0.00000000   0.00000000     rms, ekb1, ekb2, epsatm
    1  15.431  21.987    0   1.4850707        l,e99.0,e99.9,nproj,rcpsp
   0.00000000   0.00000000   0.00000000   0.00000000     rms, ekb1, ekb2, epsatm
    0.83985002509544    0.99012430797080    0.51184907750884   rchrg,fchrg,qchrg
 pspatm: epsatm=    0.92590353
         --- l  ekb(1:nproj) -->
             0    4.921466
 pspatm: atomic psp has been read  and splines computed

   2.90363347E+03                                ecore*ucvol(ha*bohr**3)
 ==== Info on pseudopotentials ====
  Norm-conserving pseudopotentials
  Number of pseudopotentials ..    1
  Number of types of atoms   ..    1
  Scalar calculation (no spin-orbit term)
  Nonlocal part applied using Legendre polynomials
  Max number of non-local projectors over l and type   1
  Highest angular momentum +1 .......   2
  Max number of (l,n)   components ..   1
  Max number of (l,m,n) components ..   1

 Pseudo-Core Charge Info: 
   Number of radial points for pseudo-core charge .. 2501
   XC core-correction treatment (optnlxccc) ........    1
   Radius for pseudo-core charge for each type ..... 

  - Atom type    1 has pseudo-core radius ..  2.5196

 Info on the Q-grid used for form factors in spline form: 
   Number of q-points for radial functions ffspl ..  20765
   Number of q-points for vlspl ...................  20765
   vloc is computed in Reciprocal Space
   model core charge treated in real-space

  XC functional for type 1 is 1
  Pseudo valence available: no

 wfconv:    60 bands initialized randomly with npw= 95328, for ikpt=     1
 wfconv:    60 bands initialized randomly with npw=190701, for ikpt=     2
 wfconv:    60 bands initialized randomly with npw=190730, for ikpt=     3
 wfconv:    60 bands initialized randomly with npw=190926, for ikpt=     4
 wfconv:    60 bands initialized randomly with npw=191108, for ikpt=     5
 wfconv:    60 bands initialized randomly with npw=191252, for ikpt=     6
 wfconv:    60 bands initialized randomly with npw=191324, for ikpt=     7
 wfconv:    60 bands initialized randomly with npw=191372, for ikpt=     8
 wfconv:    60 bands initialized randomly with npw= 95668, for ikpt=     9
_setup2: Arith. and geom. avg. npw (full set) are  191051.063  191050.872
 initro: for itypat=  1, take decay length=      0.7000,
 initro: indeed, coreel=      2.0000, nval=  4 and densty=  0.0000E+00.

================================================================================

=== [ionmov= 2] Broyden-Fletcher-Goldfard-Shanno method (forces)            
================================================================================

--- Iteration: ( 1/10) Internal Cycle: (1/1)
--------------------------------------------------------------------------------

 Cartesian coordinates (xcart) [bohr]
  0.00000000000000E+00  0.00000000000000E+00  0.00000000000000E+00
  4.02511666304642E+00  2.32390960917745E+00  0.00000000000000E+00
  0.00000000000000E+00  4.64780032109357E+00  0.00000000000000E+00
  4.02511666304642E+00  6.97170993027102E+00  0.00000000000000E+00
  0.00000000000000E+00  9.29560064218714E+00  0.00000000000000E+00
  4.02511666304642E+00  1.16195102513646E+01  0.00000000000000E+00
  0.00000000000000E+00  1.39434198605420E+01  0.00000000000000E+00
  4.02511666304642E+00  1.62673105724582E+01  0.00000000000000E+00
  0.00000000000000E+00  1.85912201816356E+01  0.00000000000000E+00
  4.02511666304642E+00  2.09151108935517E+01  0.00000000000000E+00
  0.00000000000000E+00  2.32390205027292E+01  0.00000000000000E+00
  4.02511666304642E+00  2.55629301119066E+01  0.00000000000000E+00
  0.00000000000000E+00  2.78868208238227E+01  0.00000000000000E+00
  4.02511666304642E+00  3.02107304330002E+01  0.00000000000000E+00
  2.68341110869761E+00  0.00000000000000E+00  0.00000000000000E+00
 -1.34170555434881E+00  2.32390960917745E+00  0.00000000000000E+00
  2.68341110869761E+00  4.64780032109357E+00  0.00000000000000E+00
 -1.34170555434881E+00  6.97170993027102E+00  0.00000000000000E+00
  2.68341110869761E+00  9.29560064218714E+00  0.00000000000000E+00
 -1.34170555434881E+00  1.16195102513646E+01  0.00000000000000E+00
  2.68341110869761E+00  1.39434198605420E+01  0.00000000000000E+00
 -1.34170555434881E+00  1.62673105724582E+01  0.00000000000000E+00
  2.68341110869761E+00  1.85912201816356E+01  0.00000000000000E+00
 -1.34170555434881E+00  2.09151108935517E+01  0.00000000000000E+00
  2.68341110869761E+00  2.32390205027292E+01  0.00000000000000E+00
 -1.34170555434881E+00  2.55629301119066E+01  0.00000000000000E+00
  2.68341110869761E+00  2.78868208238227E+01  0.00000000000000E+00
 -1.34170555434881E+00  3.02107304330002E+01  0.00000000000000E+00
 Reduced coordinates (xred)
  0.00000000000000E+00  0.00000000000000E+00  0.00000000000000E+00
  5.00000000000000E-01  2.19600000000000E-02  0.00000000000000E+00
  0.00000000000000E+00  4.39198214285714E-02  0.00000000000000E+00
  5.00000000000000E-01  6.58798214285714E-02  0.00000000000000E+00
  0.00000000000000E+00  8.78396428571429E-02  0.00000000000000E+00
  5.00000000000000E-01  1.09799642857143E-01  0.00000000000000E+00
  0.00000000000000E+00  1.31759642857143E-01  0.00000000000000E+00
  5.00000000000000E-01  1.53719464285714E-01  0.00000000000000E+00
  0.00000000000000E+00  1.75679464285714E-01  0.00000000000000E+00
  5.00000000000000E-01  1.97639285714286E-01  0.00000000000000E+00
  0.00000000000000E+00  2.19599285714286E-01  0.00000000000000E+00
  5.00000000000000E-01  2.41559285714286E-01  0.00000000000000E+00
  0.00000000000000E+00  2.63519107142857E-01  0.00000000000000E+00
  5.00000000000000E-01  2.85479107142857E-01  0.00000000000000E+00
  3.33333333333333E-01  0.00000000000000E+00  0.00000000000000E+00
 -1.66666666666667E-01  2.19600000000000E-02  0.00000000000000E+00
  3.33333333333333E-01  4.39198214285714E-02  0.00000000000000E+00
 -1.66666666666667E-01  6.58798214285714E-02  0.00000000000000E+00
  3.33333333333333E-01  8.78396428571429E-02  0.00000000000000E+00
 -1.66666666666667E-01  1.09799642857143E-01  0.00000000000000E+00
  3.33333333333333E-01  1.31759642857143E-01  0.00000000000000E+00
 -1.66666666666667E-01  1.53719464285714E-01  0.00000000000000E+00
  3.33333333333333E-01  1.75679464285714E-01  0.00000000000000E+00
 -1.66666666666667E-01  1.97639285714286E-01  0.00000000000000E+00
  3.33333333333333E-01  2.19599285714286E-01  0.00000000000000E+00
 -1.66666666666667E-01  2.41559285714286E-01  0.00000000000000E+00
  3.33333333333333E-01  2.63519107142857E-01  0.00000000000000E+00
 -1.66666666666667E-01  2.85479107142857E-01  0.00000000000000E+00

---SELF-CONSISTENT-FIELD CONVERGENCE--------------------------------------------

 getcut: wavevector=  0.0000  0.0000  0.0000  ngfft=  32 432 225
         ecut(hartree)=     19.000   => boxcut(ratio)=   2.01366

--- !WARNING
src_file: m_ewald.F90
src_line: 145
message: |
    Very large box of G neighbors in ewald: you probably do not want to do this.
     If you have a metal consider setting dipdip 0.  ng =         30
...


--- !WARNING
src_file: m_ewald.F90
src_line: 145
message: |
    Very large box of G neighbors in ewald: you probably do not want to do this.
     If you have a metal consider setting dipdip 0.  ng =         40
...


 ITER STEP NUMBER     1
 vtorho : nnsclo_now=2, note that nnsclo,dbl_nnsclo,istep=0 0 1
 non-scf iterations; kpt #     1  , k= (  0.00000  0.00000  0.00000  ), band residuals:
 res:  2.46E-01  6.20E-01  3.39E-01  3.24E-01  3.13E-01  3.03E-01  3.13E-01  3.51E-01
 res:  3.35E-01  3.30E-01  3.20E-01  2.94E-01  2.97E-01  2.76E-01  3.20E-01  2.01E-01
 res:  2.10E-01  2.64E-01  1.22E-01  1.79E-01  1.72E-01  1.22E-01  2.11E-01  1.43E-01
 res:  9.44E-02  9.54E-02  2.03E-01  8.56E-02  1.17E-01  1.47E-01  9.33E-02  1.25E-01
 res:  7.84E-02  5.87E-02  6.76E-02  5.81E-02  7.20E-02  7.19E-02  7.48E-02  5.45E-02
 res:  5.44E-02  6.00E-02  5.58E-02  6.43E-02  5.16E-02  5.44E-02  5.42E-02  4.35E-02
 res:  5.42E-02  6.01E-02  6.22E-02  5.45E-02  5.32E-02  4.46E-02  7.32E-02  6.12E-02
 res:  3.68E-02  7.16E-02  4.40E-02  4.27E-02
 ene: -7.70E-01 -7.15E-01 -6.68E-01 -6.45E-01 -6.31E-01 -5.75E-01 -5.74E-01 -5.29E-01
 ene: -5.20E-01 -4.99E-01 -4.69E-01 -4.54E-01 -4.50E-01 -4.35E-01 -4.24E-01 -4.12E-01
 ene: -3.95E-01 -3.70E-01 -3.63E-01 -3.53E-01 -3.08E-01 -2.93E-01 -2.86E-01 -2.76E-01
 ene: -2.28E-01 -2.24E-01 -2.06E-01 -1.80E-01 -1.58E-01 -1.51E-01 -1.29E-01 -1.16E-01
 ene: -1.08E-01 -7.52E-02 -6.11E-02 -3.12E-02 -5.32E-05  1.55E-02  2.76E-02  4.03E-02
 ene:  4.45E-02  4.67E-02  4.91E-02  5.10E-02  5.21E-02  5.63E-02  5.73E-02  5.78E-02
 ene:  5.98E-02  6.23E-02  6.32E-02  6.51E-02  6.81E-02  7.31E-02  7.41E-02  8.01E-02
 ene:  8.24E-02  8.92E-02  9.43E-02  1.16E-01
 res:  1.89E-02  2.78E-02  2.73E-02  2.75E-02  2.66E-02  2.54E-02  2.30E-02  1.90E-02
 res:  1.89E-02  2.16E-02  2.09E-02  2.24E-02  2.27E-02  2.29E-02  2.22E-02  2.37E-02
 res:  2.51E-02  2.69E-02  2.59E-02  2.53E-02  3.04E-02  3.06E-02  2.82E-02  2.73E-02
 res:  3.25E-02  3.17E-02  3.44E-02  4.82E-02  4.14E-02  5.48E-02  5.83E-02  5.95E-02
 res:  5.27E-02  6.27E-02  5.51E-02  7.16E-02  8.19E-02  7.05E-02  9.50E-02  6.00E-02
 res:  2.17E-02  2.81E-02  4.71E-02  2.58E-02  3.85E-02  3.04E-02  2.01E-02  2.03E-02
 res:  2.84E-02  2.11E-02  1.78E-02  1.60E-02  3.64E-02  1.50E-02  2.55E-02  3.62E-02
 res:  2.81E-02  1.78E-02  1.07E-02  2.98E-02
 ene: -9.00E-01 -8.90E-01 -8.74E-01 -8.53E-01 -8.25E-01 -7.94E-01 -7.57E-01 -7.17E-01
 ene: -7.13E-01 -7.04E-01 -6.91E-01 -6.79E-01 -6.74E-01 -6.71E-01 -6.67E-01 -6.58E-01
 ene: -6.49E-01 -6.47E-01 -6.45E-01 -6.18E-01 -5.84E-01 -5.69E-01 -5.67E-01 -5.45E-01
 ene: -5.32E-01 -5.31E-01 -4.95E-01 -4.90E-01 -4.83E-01 -4.47E-01 -4.40E-01 -4.39E-01
 ene: -4.31E-01 -4.14E-01 -3.99E-01 -3.86E-01 -3.56E-01 -3.32E-01 -3.26E-01 -2.91E-01
 ene: -2.83E-01 -2.46E-01 -2.06E-01 -1.21E-01  9.59E-03  1.68E-02  2.05E-02  2.25E-02
 ene:  2.44E-02  2.67E-02  2.79E-02  2.97E-02  3.17E-02  3.38E-02  3.74E-02  4.08E-02
 ene:  4.23E-02  4.57E-02  4.94E-02  5.70E-02
 vtowfk : number of one-way 3D ffts skipped in vtowfk until now =4
     eigenvalues (hartree) for   60  bands
              after    3 non-SCF iterations with    4 CG line minimizations
 -9.0023E-01 -8.8981E-01 -8.7446E-01 -8.5269E-01 -8.2517E-01 -7.9362E-01
 -7.5712E-01 -7.1725E-01 -7.1251E-01 -7.0407E-01 -6.9063E-01 -6.7853E-01
 -6.7418E-01 -6.7088E-01 -6.6679E-01 -6.5809E-01 -6.4859E-01 -6.4696E-01
 -6.4452E-01 -6.1803E-01 -5.8424E-01 -5.6923E-01 -5.6676E-01 -5.4544E-01
 -5.3165E-01 -5.3080E-01 -4.9490E-01 -4.8989E-01 -4.8300E-01 -4.4714E-01
 -4.4049E-01 -4.3933E-01 -4.3095E-01 -4.1407E-01 -3.9933E-01 -3.8608E-01
 -3.5616E-01 -3.3218E-01 -3.2642E-01 -2.9122E-01 -2.8256E-01 -2.4594E-01
 -2.0571E-01 -1.2120E-01  9.5917E-03  1.6798E-02  2.0454E-02  2.2493E-02
  2.4411E-02  2.6657E-02  2.7919E-02  2.9720E-02  3.1689E-02  3.3763E-02
  3.7399E-02  4.0776E-02  4.2301E-02  4.5678E-02  4.9381E-02  5.7022E-02
 non-scf iterations; kpt #     2  , k= (  0.06250  0.00000  0.00000  ), band residuals:
 res:  2.16E-01  4.95E-01  3.37E-01  3.41E-01  3.31E-01  3.45E-01  3.43E-01  3.28E-01
 res:  3.58E-01  3.30E-01  3.42E-01  3.26E-01  3.25E-01  2.74E-01  3.12E-01  2.71E-01
 res:  3.13E-01  2.63E-01  1.98E-01  2.28E-01  1.69E-01  1.65E-01  1.77E-01  1.54E-01
 res:  9.00E-02  1.22E-01  1.19E-01  1.09E-01  1.13E-01  8.60E-02  1.00E-01  8.73E-02
 res:  1.09E-01  8.65E-02  7.91E-02  8.42E-02  8.18E-02  5.35E-02  5.73E-02  6.77E-02
 res:  4.92E-02  6.62E-02  6.80E-02  6.38E-02  7.80E-02  5.74E-02  5.45E-02  5.31E-02
 res:  5.04E-02  5.38E-02  5.92E-02  5.68E-02  5.19E-02  5.01E-02  5.14E-02  4.48E-02
 res:  5.60E-02  4.95E-02  4.37E-02  4.38E-02
 ene: -8.15E-01 -6.93E-01 -6.73E-01 -6.60E-01 -6.20E-01 -5.77E-01 -5.17E-01 -5.00E-01
 ene: -4.85E-01 -4.65E-01 -4.51E-01 -4.43E-01 -4.16E-01 -4.03E-01 -3.96E-01 -3.91E-01
 ene: -3.71E-01 -3.54E-01 -3.37E-01 -3.31E-01 -3.06E-01 -2.95E-01 -2.88E-01 -2.57E-01
 ene: -2.45E-01 -2.17E-01 -1.88E-01 -1.70E-01 -1.49E-01 -1.33E-01 -1.18E-01 -1.02E-01
 ene: -8.94E-02 -5.44E-02 -4.78E-02 -3.30E-02 -6.63E-03  1.10E-02  3.54E-02  4.26E-02
 ene:  4.52E-02  4.70E-02  4.87E-02  5.06E-02  5.24E-02  5.51E-02  5.76E-02  5.82E-02
 ene:  6.01E-02  6.04E-02  6.16E-02  6.67E-02  6.98E-02  7.32E-02  7.51E-02  8.00E-02
 ene:  8.92E-02  9.79E-02  1.01E-01  1.21E-01
 res:  1.34E-02  2.65E-02  2.89E-02  2.95E-02  2.52E-02  2.52E-02  2.38E-02  2.38E-02
 res:  2.38E-02  2.20E-02  2.39E-02  2.35E-02  2.47E-02  2.66E-02  2.52E-02  2.38E-02
 res:  2.60E-02  2.96E-02  2.90E-02  2.83E-02  2.39E-02  3.17E-02  3.08E-02  3.28E-02
 res:  3.38E-02  3.59E-02  4.07E-02  4.45E-02  4.91E-02  5.78E-02  5.30E-02  6.34E-02
 res:  6.33E-02  7.01E-02  6.18E-02  6.98E-02  8.14E-02  7.80E-02  8.74E-02  5.84E-02
 res:  4.07E-02  3.80E-02  3.63E-02  4.31E-02  2.98E-02  4.73E-02  2.62E-02  1.91E-02
 res:  2.14E-02  2.53E-02  2.17E-02  3.27E-02  2.01E-02  2.50E-02  2.79E-02  2.13E-02
 res:  2.81E-02  2.36E-02  3.86E-02  1.98E-02
 ene: -8.99E-01 -8.89E-01 -8.73E-01 -8.51E-01 -8.25E-01 -7.93E-01 -7.55E-01 -7.23E-01
 ene: -7.17E-01 -7.15E-01 -7.01E-01 -6.83E-01 -6.77E-01 -6.63E-01 -6.59E-01 -6.53E-01
 ene: -6.43E-01 -6.36E-01 -6.34E-01 -6.21E-01 -5.88E-01 -5.64E-01 -5.60E-01 -5.51E-01
 ene: -5.30E-01 -5.28E-01 -5.05E-01 -4.89E-01 -4.71E-01 -4.44E-01 -4.39E-01 -4.31E-01
 ene: -4.25E-01 -4.11E-01 -3.98E-01 -3.86E-01 -3.53E-01 -3.43E-01 -3.21E-01 -3.08E-01
 ene: -2.73E-01 -2.55E-01 -2.33E-01 -1.97E-01 -2.23E-02  1.50E-02  1.98E-02  2.24E-02
 ene:  2.38E-02  2.48E-02  2.62E-02  2.79E-02  3.00E-02  3.14E-02  3.31E-02  3.57E-02
 ene:  3.85E-02  4.30E-02  4.57E-02  5.26E-02
 vtowfk : number of one-way 3D ffts skipped in vtowfk until now =8
     eigenvalues (hartree) for   60  bands
              after    3 non-SCF iterations with    4 CG line minimizations
 -8.9894E-01 -8.8931E-01 -8.7346E-01 -8.5139E-01 -8.2479E-01 -7.9259E-01
 -7.5541E-01 -7.2337E-01 -7.1656E-01 -7.1467E-01 -7.0057E-01 -6.8346E-01
 -6.7689E-01 -6.6255E-01 -6.5894E-01 -6.5301E-01 -6.4344E-01 -6.3591E-01
 -6.3424E-01 -6.2141E-01 -5.8794E-01 -5.6370E-01 -5.6023E-01 -5.5062E-01
 -5.3014E-01 -5.2800E-01 -5.0540E-01 -4.8931E-01 -4.7056E-01 -4.4425E-01
 -4.3948E-01 -4.3104E-01 -4.2486E-01 -4.1095E-01 -3.9817E-01 -3.8624E-01
 -3.5305E-01 -3.4339E-01 -3.2060E-01 -3.0782E-01 -2.7291E-01 -2.5461E-01
 -2.3278E-01 -1.9687E-01 -2.2327E-02  1.4986E-02  1.9813E-02  2.2442E-02
  2.3826E-02  2.4751E-02  2.6160E-02  2.7931E-02  3.0022E-02  3.1419E-02
  3.3122E-02  3.5657E-02  3.8534E-02  4.3030E-02  4.5740E-02  5.2554E-02
 non-scf iterations; kpt #     3  , k= (  0.12500  0.00000  0.00000  ), band residuals:
 res:  2.48E-01  5.15E-01  3.33E-01  3.13E-01  3.41E-01  3.40E-01  3.52E-01  3.20E-01
 res:  3.51E-01  3.37E-01  3.52E-01  3.37E-01  3.20E-01  3.02E-01  2.79E-01  2.86E-01
 res:  2.47E-01  2.61E-01  2.43E-01  2.18E-01  2.49E-01  1.45E-01  1.17E-01  1.89E-01
 res:  1.47E-01  9.81E-02  1.28E-01  1.49E-01  6.85E-02  8.71E-02  8.21E-02  9.28E-02
 res:  1.14E-01  9.50E-02  7.50E-02  6.60E-02  7.61E-02  7.96E-02  7.52E-02  5.05E-02
 res:  4.90E-02  5.80E-02  6.50E-02  7.60E-02  5.18E-02  6.47E-02  6.96E-02  6.49E-02
 res:  5.50E-02  4.30E-02  5.92E-02  5.92E-02  5.03E-02  5.47E-02  4.73E-02  4.86E-02
 res:  4.06E-02  5.50E-02  3.99E-02  4.87E-02
 ene: -7.89E-01 -6.93E-01 -6.60E-01 -6.54E-01 -5.97E-01 -5.63E-01 -5.28E-01 -5.16E-01
 ene: -4.98E-01 -4.86E-01 -4.73E-01 -4.57E-01 -4.33E-01 -4.19E-01 -4.11E-01 -3.85E-01
 ene: -3.66E-01 -3.59E-01 -3.45E-01 -3.14E-01 -3.10E-01 -2.98E-01 -2.68E-01 -2.53E-01
 ene: -2.47E-01 -2.16E-01 -1.82E-01 -1.65E-01 -1.46E-01 -1.15E-01 -1.10E-01 -9.03E-02
 ene: -6.90E-02 -5.34E-02 -2.88E-02 -1.80E-03  1.76E-02  3.17E-02  4.20E-02  4.49E-02
 ene:  4.67E-02  4.90E-02  5.13E-02  5.46E-02  5.51E-02  5.84E-02  6.11E-02  6.17E-02
 ene:  6.44E-02  6.71E-02  6.90E-02  7.29E-02  7.47E-02  7.68E-02  7.99E-02  8.24E-02
 ene:  8.82E-02  9.10E-02  1.04E-01  1.20E-01
 res:  1.44E-02  2.95E-02  2.75E-02  2.95E-02  2.46E-02  2.51E-02  2.35E-02  2.27E-02
 res:  2.37E-02  2.37E-02  2.37E-02  2.57E-02  2.45E-02  2.49E-02  2.49E-02  2.66E-02
 res:  2.54E-02  2.94E-02  2.89E-02  3.08E-02  2.97E-02  2.74E-02  3.03E-02  3.11E-02
 res:  3.37E-02  3.39E-02  5.03E-02  4.04E-02  5.13E-02  5.86E-02  5.14E-02  6.04E-02
 res:  6.05E-02  6.55E-02  7.22E-02  8.37E-02  7.66E-02  9.79E-02  6.68E-02  7.63E-02
 res:  6.83E-02  4.69E-02  3.91E-02  3.85E-02  5.19E-02  2.97E-02  1.87E-02  2.57E-02
 res:  4.30E-02  1.68E-02  2.64E-02  2.32E-02  3.19E-02  2.82E-02  1.98E-02  2.10E-02
 res:  1.37E-02  1.50E-02  4.78E-02  3.49E-02
 ene: -8.96E-01 -8.87E-01 -8.71E-01 -8.50E-01 -8.23E-01 -7.90E-01 -7.54E-01 -7.42E-01
 ene: -7.34E-01 -7.20E-01 -7.15E-01 -7.02E-01 -6.81E-01 -6.77E-01 -6.37E-01 -6.34E-01
 ene: -6.32E-01 -6.28E-01 -6.21E-01 -6.12E-01 -6.00E-01 -5.65E-01 -5.52E-01 -5.47E-01
 ene: -5.26E-01 -5.18E-01 -5.08E-01 -4.77E-01 -4.55E-01 -4.43E-01 -4.36E-01 -4.25E-01
 ene: -4.07E-01 -4.02E-01 -3.84E-01 -3.78E-01 -3.53E-01 -3.48E-01 -3.20E-01 -2.89E-01
 ene: -2.79E-01 -2.44E-01 -2.26E-01 -2.17E-01 -1.91E-01  1.49E-02  2.08E-02  2.78E-02
 ene:  2.91E-02  3.09E-02  3.42E-02  3.54E-02  3.68E-02  3.89E-02  4.10E-02  4.25E-02
 ene:  4.72E-02  4.91E-02  5.12E-02  5.65E-02
 vtowfk : number of one-way 3D ffts skipped in vtowfk until now =12
     eigenvalues (hartree) for   60  bands
              after    3 non-SCF iterations with    4 CG line minimizations
 -8.9561E-01 -8.8694E-01 -8.7067E-01 -8.4981E-01 -8.2266E-01 -7.9000E-01
 -7.5393E-01 -7.4218E-01 -7.3417E-01 -7.1973E-01 -7.1456E-01 -7.0154E-01
 -6.8073E-01 -6.7693E-01 -6.3696E-01 -6.3386E-01 -6.3151E-01 -6.2812E-01
 -6.2074E-01 -6.1170E-01 -6.0013E-01 -5.6531E-01 -5.5171E-01 -5.4653E-01
 -5.2613E-01 -5.1844E-01 -5.0834E-01 -4.7722E-01 -4.5487E-01 -4.4317E-01
 -4.3613E-01 -4.2493E-01 -4.0665E-01 -4.0182E-01 -3.8397E-01 -3.7775E-01
 -3.5273E-01 -3.4787E-01 -3.1958E-01 -2.8935E-01 -2.7872E-01 -2.4376E-01
 -2.2647E-01 -2.1734E-01 -1.9148E-01  1.4903E-02  2.0807E-02  2.7840E-02
  2.9068E-02  3.0874E-02  3.4242E-02  3.5373E-02  3.6803E-02  3.8913E-02
  4.0966E-02  4.2498E-02  4.7157E-02  4.9145E-02  5.1231E-02  5.6534E-02
 non-scf iterations; kpt #     4  , k= (  0.18750  0.00000  0.00000  ), band residuals:
 res:  2.27E-01  5.40E-01  3.37E-01  3.22E-01  3.27E-01  3.58E-01  3.46E-01  3.52E-01
 res:  3.37E-01  3.25E-01  3.40E-01  3.42E-01  2.53E-01  3.02E-01  3.26E-01  2.89E-01
 res:  2.18E-01  1.84E-01  2.53E-01  2.25E-01  1.76E-01  2.03E-01  1.42E-01  1.57E-01
 res:  1.23E-01  9.14E-02  1.49E-01  1.14E-01  9.89E-02  1.03E-01  9.41E-02  9.21E-02
 res:  8.27E-02  7.34E-02  6.57E-02  6.97E-02  6.66E-02  7.57E-02  7.97E-02  6.90E-02
 res:  6.27E-02  7.24E-02  5.99E-02  6.99E-02  6.06E-02  5.70E-02  5.84E-02  7.93E-02
 res:  5.06E-02  6.95E-02  6.06E-02  6.01E-02  6.02E-02  5.84E-02  5.31E-02  4.65E-02
 res:  5.84E-02  5.75E-02  6.38E-02  4.81E-02
 ene: -7.94E-01 -7.10E-01 -6.84E-01 -6.30E-01 -5.93E-01 -5.87E-01 -5.56E-01 -5.30E-01
 ene: -5.20E-01 -5.03E-01 -5.00E-01 -4.90E-01 -4.49E-01 -4.34E-01 -4.23E-01 -4.07E-01
 ene: -3.95E-01 -3.66E-01 -3.55E-01 -3.44E-01 -3.03E-01 -2.98E-01 -2.73E-01 -2.63E-01
 ene: -2.47E-01 -2.38E-01 -2.04E-01 -1.82E-01 -1.50E-01 -1.25E-01 -1.12E-01 -9.76E-02
 ene: -8.51E-02 -7.98E-02 -5.23E-02 -4.21E-02 -3.84E-03  8.91E-03  2.33E-02  3.82E-02
 ene:  4.25E-02  4.86E-02  5.61E-02  5.83E-02  6.14E-02  6.29E-02  6.40E-02  6.81E-02
 ene:  6.91E-02  7.09E-02  7.38E-02  7.59E-02  7.81E-02  7.96E-02  8.40E-02  8.57E-02
 ene:  9.11E-02  9.67E-02  9.97E-02  1.19E-01
 res:  1.39E-02  2.63E-02  2.53E-02  2.94E-02  2.59E-02  2.43E-02  2.41E-02  2.32E-02
 res:  2.27E-02  2.32E-02  2.43E-02  2.52E-02  2.34E-02  2.54E-02  1.91E-02  2.50E-02
 res:  2.10E-02  2.90E-02  2.89E-02  2.65E-02  2.31E-02  2.87E-02  2.86E-02  2.86E-02
 res:  2.69E-02  2.35E-02  3.29E-02  4.49E-02  4.07E-02  4.85E-02  5.00E-02  5.38E-02
 res:  5.48E-02  6.08E-02  5.89E-02  6.70E-02  6.09E-02  6.11E-02  6.36E-02  8.20E-02
 res:  7.19E-02  7.41E-02  4.59E-02  3.51E-02  3.44E-02  4.07E-02  5.21E-02  3.04E-02
 res:  6.06E-02  3.02E-02  4.08E-02  3.84E-02  2.93E-02  3.27E-02  2.01E-02  2.31E-02
 res:  1.02E-02  1.67E-02  2.20E-02  3.04E-02
 ene: -8.93E-01 -8.82E-01 -8.66E-01 -8.45E-01 -8.18E-01 -7.87E-01 -7.63E-01 -7.55E-01
 ene: -7.49E-01 -7.39E-01 -7.20E-01 -7.11E-01 -6.97E-01 -6.83E-01 -6.42E-01 -6.28E-01
 ene: -6.14E-01 -6.09E-01 -6.07E-01 -5.99E-01 -5.95E-01 -5.76E-01 -5.37E-01 -5.36E-01
 ene: -5.33E-01 -5.08E-01 -4.97E-01 -4.89E-01 -4.64E-01 -4.47E-01 -4.33E-01 -4.20E-01
 ene: -4.08E-01 -4.04E-01 -3.96E-01 -3.77E-01 -3.53E-01 -3.49E-01 -3.28E-01 -3.11E-01
 ene: -2.79E-01 -2.70E-01 -2.60E-01 -2.46E-01 -2.19E-01 -2.01E-01 -1.72E-01 -1.24E-01
 ene:  2.90E-02  3.50E-02  3.67E-02  3.92E-02  4.05E-02  4.39E-02  4.54E-02  4.76E-02
 ene:  5.06E-02  5.31E-02  5.69E-02  6.25E-02
 vtowfk : number of one-way 3D ffts skipped in vtowfk until now =16
     eigenvalues (hartree) for   60  bands
              after    3 non-SCF iterations with    4 CG line minimizations
 -8.9252E-01 -8.8238E-01 -8.6644E-01 -8.4528E-01 -8.1835E-01 -7.8659E-01
 -7.6317E-01 -7.5477E-01 -7.4932E-01 -7.3866E-01 -7.1992E-01 -7.1073E-01
 -6.9670E-01 -6.8276E-01 -6.4217E-01 -6.2802E-01 -6.1383E-01 -6.0933E-01
 -6.0717E-01 -5.9875E-01 -5.9547E-01 -5.7626E-01 -5.3745E-01 -5.3590E-01
 -5.3334E-01 -5.0825E-01 -4.9650E-01 -4.8854E-01 -4.6380E-01 -4.4728E-01
 -4.3311E-01 -4.2041E-01 -4.0816E-01 -4.0357E-01 -3.9611E-01 -3.7724E-01
 -3.5276E-01 -3.4943E-01 -3.2751E-01 -3.1144E-01 -2.7874E-01 -2.6978E-01
 -2.5957E-01 -2.4592E-01 -2.1903E-01 -2.0114E-01 -1.7179E-01 -1.2400E-01
  2.8986E-02  3.4958E-02  3.6742E-02  3.9177E-02  4.0521E-02  4.3852E-02
  4.5368E-02  4.7617E-02  5.0633E-02  5.3092E-02  5.6904E-02  6.2462E-02
 non-scf iterations; kpt #     5  , k= (  0.25000  0.00000  0.00000  ), band residuals:
 res:  2.55E-01  5.11E-01  3.18E-01  3.12E-01  3.15E-01  3.45E-01  3.26E-01  3.55E-01
 res:  3.69E-01  3.78E-01  3.46E-01  3.45E-01  3.51E-01  2.65E-01  2.67E-01  2.78E-01
 res:  2.20E-01  2.31E-01  2.27E-01  2.06E-01  1.68E-01  1.80E-01  1.79E-01  1.50E-01
 res:  1.16E-01  1.55E-01  1.24E-01  1.29E-01  6.46E-02  1.13E-01  7.46E-02  7.06E-02
 res:  9.33E-02  8.37E-02  7.66E-02  7.36E-02  7.77E-02  7.61E-02  5.99E-02  6.56E-02
 res:  8.73E-02  6.27E-02  8.08E-02  6.90E-02  6.19E-02  6.90E-02  6.03E-02  6.14E-02
 res:  6.56E-02  5.38E-02  5.96E-02  5.66E-02  4.87E-02  5.37E-02  4.12E-02  5.76E-02
 res:  6.08E-02  5.06E-02  7.41E-02  5.35E-02
 ene: -7.69E-01 -6.90E-01 -6.79E-01 -6.58E-01 -6.35E-01 -6.08E-01 -5.87E-01 -5.82E-01
 ene: -5.55E-01 -5.36E-01 -5.20E-01 -5.05E-01 -4.90E-01 -4.68E-01 -4.48E-01 -4.23E-01
 ene: -4.20E-01 -4.11E-01 -4.01E-01 -3.79E-01 -3.65E-01 -3.49E-01 -3.29E-01 -2.74E-01
 ene: -2.72E-01 -2.36E-01 -2.22E-01 -1.87E-01 -1.64E-01 -1.53E-01 -1.40E-01 -1.20E-01
 ene: -1.08E-01 -8.76E-02 -7.30E-02 -5.95E-02 -4.42E-02 -1.88E-02 -9.92E-04  2.36E-02
 ene:  3.26E-02  4.80E-02  5.89E-02  6.11E-02  6.54E-02  6.69E-02  6.91E-02  7.15E-02
 ene:  7.42E-02  7.59E-02  7.75E-02  7.97E-02  8.14E-02  8.42E-02  8.66E-02  8.89E-02
 ene:  9.18E-02  9.49E-02  9.99E-02  1.11E-01
 res:  1.48E-02  2.71E-02  2.57E-02  2.61E-02  2.33E-02  2.25E-02  2.32E-02  2.30E-02
 res:  2.21E-02  2.62E-02  2.42E-02  2.28E-02  2.32E-02  2.70E-02  2.17E-02  1.72E-02
 res:  2.11E-02  1.96E-02  1.43E-02  2.11E-02  2.34E-02  2.58E-02  2.24E-02  2.52E-02
 res:  2.19E-02  2.15E-02  2.60E-02  3.71E-02  3.55E-02  3.51E-02  4.49E-02  4.12E-02
 res:  4.63E-02  4.30E-02  3.96E-02  4.03E-02  4.55E-02  5.98E-02  5.68E-02  7.04E-02
 res:  6.73E-02  9.77E-02  8.42E-02  5.84E-02  4.87E-02  5.08E-02  4.70E-02  2.01E-02
 res:  1.75E-02  2.40E-02  2.14E-02  3.86E-02  2.92E-02  3.81E-02  1.78E-02  2.15E-02
 res:  3.48E-02  3.00E-02  3.23E-02  1.99E-02
 ene: -8.86E-01 -8.77E-01 -8.61E-01 -8.40E-01 -8.13E-01 -7.82E-01 -7.81E-01 -7.73E-01
 ene: -7.59E-01 -7.45E-01 -7.40E-01 -7.15E-01 -7.07E-01 -6.93E-01 -6.46E-01 -6.39E-01
 ene: -6.08E-01 -6.03E-01 -5.87E-01 -5.83E-01 -5.78E-01 -5.75E-01 -5.52E-01 -5.20E-01
 ene: -5.12E-01 -5.05E-01 -4.92E-01 -4.77E-01 -4.53E-01 -4.40E-01 -4.29E-01 -4.19E-01
 ene: -4.18E-01 -4.01E-01 -3.85E-01 -3.74E-01 -3.65E-01 -3.47E-01 -3.23E-01 -3.09E-01
 ene: -3.04E-01 -2.92E-01 -2.81E-01 -2.76E-01 -2.49E-01 -2.22E-01 -2.03E-01 -1.20E-01
 ene:  1.86E-02  3.58E-02  3.87E-02  4.28E-02  4.39E-02  4.58E-02  4.75E-02  4.91E-02
 ene:  5.12E-02  5.27E-02  5.59E-02  5.95E-02
 vtowfk : number of one-way 3D ffts skipped in vtowfk until now =20
     eigenvalues (hartree) for   60  bands
              after    3 non-SCF iterations with    4 CG line minimizations
 -8.8566E-01 -8.7654E-01 -8.6087E-01 -8.3999E-01 -8.1314E-01 -7.8239E-01
 -7.8095E-01 -7.7314E-01 -7.5927E-01 -7.4521E-01 -7.3970E-01 -7.1523E-01
 -7.0701E-01 -6.9297E-01 -6.4576E-01 -6.3919E-01 -6.0787E-01 -6.0324E-01
 -5.8749E-01 -5.8304E-01 -5.7815E-01 -5.7545E-01 -5.5232E-01 -5.2041E-01
 -5.1213E-01 -5.0491E-01 -4.9208E-01 -4.7727E-01 -4.5311E-01 -4.4030E-01
 -4.2900E-01 -4.1869E-01 -4.1757E-01 -4.0089E-01 -3.8497E-01 -3.7418E-01
 -3.6526E-01 -3.4688E-01 -3.2317E-01 -3.0853E-01 -3.0420E-01 -2.9230E-01
 -2.8068E-01 -2.7647E-01 -2.4885E-01 -2.2211E-01 -2.0273E-01 -1.1973E-01
  1.8631E-02  3.5782E-02  3.8658E-02  4.2816E-02  4.3950E-02  4.5814E-02
  4.7489E-02  4.9146E-02  5.1175E-02  5.2659E-02  5.5891E-02  5.9505E-02
 non-scf iterations; kpt #     6  , k= (  0.31250  0.00000  0.00000  ), band residuals:
 res:  2.37E-01  5.22E-01  2.97E-01  3.24E-01  3.12E-01  3.22E-01  3.83E-01  3.60E-01
 res:  3.59E-01  3.58E-01  3.73E-01  3.47E-01  3.30E-01  3.56E-01  2.72E-01  3.20E-01
 res:  2.88E-01  3.15E-01  2.03E-01  1.62E-01  1.59E-01  1.29E-01  1.55E-01  1.54E-01
 res:  1.28E-01  9.81E-02  9.54E-02  1.25E-01  9.08E-02  1.14E-01  8.28E-02  8.03E-02
 res:  7.12E-02  9.21E-02  9.15E-02  7.20E-02  9.36E-02  7.56E-02  6.32E-02  8.53E-02
 res:  6.37E-02  7.27E-02  5.72E-02  4.32E-02  5.87E-02  5.82E-02  6.54E-02  8.98E-02
 res:  6.36E-02  6.18E-02  5.82E-02  5.00E-02  6.06E-02  6.47E-02  5.45E-02  6.91E-02
 res:  5.79E-02  6.81E-02  5.60E-02  6.32E-02
 ene: -7.67E-01 -7.02E-01 -6.69E-01 -6.30E-01 -6.15E-01 -6.05E-01 -5.87E-01 -5.59E-01
 ene: -5.37E-01 -5.26E-01 -5.09E-01 -4.88E-01 -4.51E-01 -4.37E-01 -4.24E-01 -4.04E-01
 ene: -3.87E-01 -3.72E-01 -3.55E-01 -3.51E-01 -3.31E-01 -3.05E-01 -2.85E-01 -2.77E-01
 ene: -2.26E-01 -1.93E-01 -1.78E-01 -1.53E-01 -1.44E-01 -1.32E-01 -1.14E-01 -9.29E-02
 ene: -8.44E-02 -7.73E-02 -6.04E-02 -4.35E-02 -3.16E-02 -9.22E-03  2.01E-02  2.98E-02
 ene:  4.02E-02  6.22E-02  7.03E-02  7.66E-02  7.84E-02  8.12E-02  8.21E-02  8.53E-02
 ene:  8.84E-02  9.03E-02  9.22E-02  9.35E-02  9.48E-02  9.75E-02  9.97E-02  1.05E-01
 ene:  1.06E-01  1.10E-01  1.25E-01  1.48E-01
 res:  1.29E-02  2.47E-02  2.18E-02  2.63E-02  2.26E-02  2.38E-02  2.53E-02  2.60E-02
 res:  2.39E-02  2.48E-02  2.54E-02  2.47E-02  2.70E-02  2.56E-02  2.44E-02  2.41E-02
 res:  1.85E-02  2.38E-02  2.10E-02  1.99E-02  2.42E-02  2.73E-02  3.11E-02  2.95E-02
 res:  2.95E-02  3.26E-02  3.62E-02  3.74E-02  3.57E-02  4.72E-02  3.49E-02  4.31E-02
 res:  4.26E-02  4.72E-02  5.06E-02  4.73E-02  5.14E-02  5.99E-02  6.71E-02  6.65E-02
 res:  7.41E-02  9.77E-02  7.83E-02  5.49E-02  3.28E-02  5.60E-02  5.02E-02  5.27E-02
 res:  4.74E-02  3.01E-02  2.71E-02  2.12E-02  3.23E-02  2.70E-02  2.85E-02  3.25E-02
 res:  1.86E-02  4.00E-02  6.17E-02  3.43E-02
 ene: -8.79E-01 -8.68E-01 -8.53E-01 -8.32E-01 -8.06E-01 -8.00E-01 -7.91E-01 -7.77E-01
 ene: -7.73E-01 -7.57E-01 -7.37E-01 -7.32E-01 -7.05E-01 -7.03E-01 -6.48E-01 -6.41E-01
 ene: -6.12E-01 -5.98E-01 -5.70E-01 -5.62E-01 -5.59E-01 -5.54E-01 -5.47E-01 -5.18E-01
 ene: -4.97E-01 -4.87E-01 -4.76E-01 -4.63E-01 -4.47E-01 -4.35E-01 -4.19E-01 -4.05E-01
 ene: -3.92E-01 -3.85E-01 -3.76E-01 -3.63E-01 -3.46E-01 -3.34E-01 -3.27E-01 -3.18E-01
 ene: -3.09E-01 -3.00E-01 -2.86E-01 -2.66E-01 -2.51E-01 -2.34E-01 -2.18E-01 -1.90E-01
 ene: -6.92E-02  4.70E-02  5.21E-02  5.34E-02  5.47E-02  5.72E-02  5.91E-02  6.16E-02
 ene:  6.37E-02  6.69E-02  7.09E-02  7.58E-02
 vtowfk : number of one-way 3D ffts skipped in vtowfk until now =24
     eigenvalues (hartree) for   60  bands
              after    3 non-SCF iterations with    4 CG line minimizations
 -8.7878E-01 -8.6757E-01 -8.5328E-01 -8.3209E-01 -8.0647E-01 -8.0005E-01
 -7.9096E-01 -7.7674E-01 -7.7346E-01 -7.5693E-01 -7.3666E-01 -7.3154E-01
 -7.0504E-01 -7.0280E-01 -6.4787E-01 -6.4131E-01 -6.1153E-01 -5.9840E-01
 -5.7021E-01 -5.6190E-01 -5.5901E-01 -5.5399E-01 -5.4721E-01 -5.1776E-01
 -4.9657E-01 -4.8720E-01 -4.7557E-01 -4.6301E-01 -4.4740E-01 -4.3539E-01
 -4.1893E-01 -4.0460E-01 -3.9240E-01 -3.8453E-01 -3.7550E-01 -3.6287E-01
 -3.4585E-01 -3.3421E-01 -3.2711E-01 -3.1764E-01 -3.0879E-01 -2.9979E-01
 -2.8643E-01 -2.6650E-01 -2.5099E-01 -2.3368E-01 -2.1793E-01 -1.9020E-01
 -6.9235E-02  4.7018E-02  5.2053E-02  5.3440E-02  5.4741E-02  5.7204E-02
  5.9076E-02  6.1628E-02  6.3657E-02  6.6878E-02  7.0887E-02  7.5761E-02
 non-scf iterations; kpt #     7  , k= (  0.37500  0.00000  0.00000  ), band residuals:
 res:  2.36E-01  5.13E-01  3.19E-01  3.04E-01  3.31E-01  3.65E-01  3.49E-01  3.63E-01
 res:  3.74E-01  3.84E-01  3.93E-01  3.37E-01  3.86E-01  3.28E-01  3.16E-01  2.40E-01
 res:  1.39E-01  1.93E-01  2.36E-01  2.05E-01  1.84E-01  2.13E-01  1.42E-01  1.38E-01
 res:  1.23E-01  1.20E-01  1.43E-01  8.48E-02  8.48E-02  9.76E-02  7.08E-02  9.67E-02
 res:  8.98E-02  6.82E-02  1.02E-01  9.53E-02  6.60E-02  6.16E-02  6.97E-02  8.40E-02
 res:  7.26E-02  5.53E-02  5.61E-02  9.31E-02  7.24E-02  5.35E-02  6.63E-02  6.45E-02
 res:  5.03E-02  5.78E-02  4.34E-02  5.70E-02  5.21E-02  4.71E-02  5.60E-02  6.02E-02
 res:  5.33E-02  4.20E-02  4.42E-02  5.34E-02
 ene: -7.71E-01 -6.94E-01 -6.67E-01 -6.42E-01 -6.20E-01 -6.00E-01 -5.80E-01 -5.64E-01
 ene: -5.49E-01 -5.34E-01 -5.17E-01 -4.95E-01 -4.84E-01 -4.54E-01 -4.31E-01 -3.94E-01
 ene: -3.72E-01 -3.62E-01 -3.49E-01 -3.26E-01 -3.16E-01 -3.05E-01 -2.74E-01 -2.62E-01
 ene: -2.06E-01 -1.74E-01 -1.61E-01 -1.32E-01 -1.20E-01 -1.04E-01 -9.24E-02 -8.56E-02
 ene: -6.33E-02 -5.34E-02 -4.50E-02 -2.13E-02  2.33E-04  2.03E-02  3.30E-02  3.83E-02
 ene:  5.53E-02  7.36E-02  7.88E-02  8.80E-02  9.20E-02  9.50E-02  9.83E-02  1.01E-01
 ene:  1.01E-01  1.04E-01  1.06E-01  1.09E-01  1.12E-01  1.14E-01  1.15E-01  1.19E-01
 ene:  1.23E-01  1.30E-01  1.37E-01  1.53E-01
 res:  1.33E-02  2.32E-02  2.09E-02  2.46E-02  2.36E-02  2.48E-02  2.63E-02  2.46E-02
 res:  2.43E-02  2.51E-02  2.61E-02  2.62E-02  2.73E-02  2.42E-02  2.57E-02  2.72E-02
 res:  2.36E-02  2.39E-02  2.56E-02  2.03E-02  2.53E-02  1.93E-02  2.93E-02  2.89E-02
 res:  3.86E-02  3.21E-02  3.35E-02  3.84E-02  4.00E-02  3.46E-02  3.86E-02  3.43E-02
 res:  5.31E-02  4.91E-02  4.48E-02  5.28E-02  6.47E-02  6.32E-02  7.43E-02  6.79E-02
 res:  8.44E-02  8.66E-02  1.02E-01  8.59E-02  6.73E-02  6.79E-02  7.36E-02  6.18E-02
 res:  4.20E-02  4.18E-02  5.22E-02  3.07E-02  4.95E-02  3.99E-02  3.49E-02  4.78E-02
 res:  3.66E-02  2.78E-02  4.16E-02  6.23E-02
 ene: -8.69E-01 -8.61E-01 -8.43E-01 -8.23E-01 -8.16E-01 -8.08E-01 -7.97E-01 -7.91E-01
 ene: -7.73E-01 -7.65E-01 -7.47E-01 -7.30E-01 -7.18E-01 -7.00E-01 -6.58E-01 -6.43E-01
 ene: -6.20E-01 -6.00E-01 -5.76E-01 -5.57E-01 -5.34E-01 -5.32E-01 -5.28E-01 -5.22E-01
 ene: -4.87E-01 -4.69E-01 -4.56E-01 -4.40E-01 -4.22E-01 -4.16E-01 -4.07E-01 -4.00E-01
 ene: -3.96E-01 -3.80E-01 -3.64E-01 -3.57E-01 -3.48E-01 -3.45E-01 -3.31E-01 -3.23E-01
 ene: -3.11E-01 -3.05E-01 -2.94E-01 -2.84E-01 -2.38E-01 -2.31E-01 -2.00E-01 -1.73E-01
 ene: -4.14E-02  1.97E-02  5.60E-02  6.34E-02  6.68E-02  6.92E-02  7.17E-02  7.43E-02
 ene:  7.51E-02  7.69E-02  7.97E-02  8.35E-02
 vtowfk : number of one-way 3D ffts skipped in vtowfk until now =28
     eigenvalues (hartree) for   60  bands
              after    3 non-SCF iterations with    4 CG line minimizations
 -8.6941E-01 -8.6071E-01 -8.4294E-01 -8.2316E-01 -8.1637E-01 -8.0804E-01
 -7.9664E-01 -7.9145E-01 -7.7261E-01 -7.6463E-01 -7.4663E-01 -7.2983E-01
 -7.1776E-01 -6.9990E-01 -6.5804E-01 -6.4253E-01 -6.1974E-01 -5.9954E-01
 -5.7560E-01 -5.5682E-01 -5.3416E-01 -5.3168E-01 -5.2811E-01 -5.2171E-01
 -4.8652E-01 -4.6899E-01 -4.5571E-01 -4.4040E-01 -4.2178E-01 -4.1597E-01
 -4.0717E-01 -3.9973E-01 -3.9603E-01 -3.7961E-01 -3.6449E-01 -3.5697E-01
 -3.4838E-01 -3.4505E-01 -3.3112E-01 -3.2316E-01 -3.1143E-01 -3.0474E-01
 -2.9356E-01 -2.8414E-01 -2.3755E-01 -2.3149E-01 -2.0044E-01 -1.7261E-01
 -4.1350E-02  1.9740E-02  5.6023E-02  6.3416E-02  6.6764E-02  6.9203E-02
  7.1652E-02  7.4266E-02  7.5080E-02  7.6943E-02  7.9731E-02  8.3464E-02
 non-scf iterations; kpt #     8  , k= (  0.43750  0.00000  0.00000  ), band residuals:
 res:  2.46E-01  5.09E-01  3.12E-01  2.90E-01  3.67E-01  3.38E-01  3.21E-01  3.27E-01
 res:  3.43E-01  3.91E-01  3.67E-01  3.52E-01  3.67E-01  3.66E-01  3.65E-01  3.23E-01
 res:  2.91E-01  2.60E-01  2.27E-01  2.03E-01  2.09E-01  1.18E-01  1.42E-01  1.56E-01
 res:  8.79E-02  7.79E-02  1.21E-01  9.30E-02  1.07E-01  1.20E-01  8.23E-02  1.01E-01
 res:  9.50E-02  8.12E-02  8.75E-02  8.87E-02  6.51E-02  8.78E-02  7.46E-02  5.99E-02
 res:  6.65E-02  7.16E-02  6.87E-02  7.51E-02  6.85E-02  6.95E-02  6.34E-02  5.16E-02
 res:  5.55E-02  6.01E-02  6.33E-02  6.04E-02  5.96E-02  5.08E-02  5.29E-02  5.75E-02
 res:  6.57E-02  4.84E-02  6.62E-02  5.18E-02
 ene: -7.51E-01 -6.88E-01 -6.57E-01 -6.43E-01 -6.34E-01 -6.21E-01 -6.06E-01 -5.96E-01
 ene: -5.69E-01 -5.43E-01 -5.34E-01 -5.15E-01 -4.95E-01 -4.63E-01 -4.38E-01 -4.07E-01
 ene: -3.99E-01 -3.68E-01 -3.41E-01 -3.32E-01 -3.22E-01 -2.99E-01 -2.73E-01 -2.50E-01
 ene: -2.39E-01 -1.99E-01 -1.79E-01 -1.66E-01 -1.50E-01 -1.34E-01 -1.27E-01 -1.16E-01
 ene: -1.10E-01 -8.39E-02 -7.03E-02 -6.22E-02 -4.61E-02 -2.96E-02 -2.11E-04  1.61E-02
 ene:  3.67E-02  4.87E-02  7.17E-02  9.11E-02  1.02E-01  1.05E-01  1.13E-01  1.13E-01
 ene:  1.17E-01  1.21E-01  1.22E-01  1.25E-01  1.26E-01  1.31E-01  1.32E-01  1.34E-01
 ene:  1.39E-01  1.44E-01  1.51E-01  1.61E-01
 res:  1.25E-02  2.16E-02  2.31E-02  2.31E-02  2.23E-02  2.42E-02  2.38E-02  2.31E-02
 res:  2.44E-02  2.36E-02  2.40E-02  2.38E-02  2.31E-02  2.77E-02  2.51E-02  2.53E-02
 res:  2.59E-02  2.43E-02  1.97E-02  1.44E-02  2.22E-02  2.29E-02  2.06E-02  2.19E-02
 res:  2.29E-02  2.52E-02  2.30E-02  2.90E-02  3.02E-02  3.02E-02  2.81E-02  3.27E-02
 res:  2.98E-02  4.18E-02  4.05E-02  3.61E-02  4.39E-02  4.39E-02  4.57E-02  5.80E-02
 res:  7.03E-02  6.36E-02  9.29E-02  8.90E-02  1.00E-01  1.04E-01  7.97E-02  6.62E-02
 res:  4.45E-02  5.15E-02  6.94E-02  7.84E-02  5.20E-02  2.99E-02  3.60E-02  3.95E-02
 res:  4.16E-02  3.20E-02  4.47E-02  3.11E-02
 ene: -8.59E-01 -8.49E-01 -8.34E-01 -8.32E-01 -8.24E-01 -8.13E-01 -8.08E-01 -7.89E-01
 ene: -7.86E-01 -7.62E-01 -7.54E-01 -7.33E-01 -7.22E-01 -7.06E-01 -6.60E-01 -6.47E-01
 ene: -6.21E-01 -6.05E-01 -5.73E-01 -5.59E-01 -5.29E-01 -5.17E-01 -5.01E-01 -4.99E-01
 ene: -4.92E-01 -4.59E-01 -4.53E-01 -4.45E-01 -4.35E-01 -4.23E-01 -4.16E-01 -3.98E-01
 ene: -3.88E-01 -3.81E-01 -3.69E-01 -3.67E-01 -3.58E-01 -3.47E-01 -3.43E-01 -3.35E-01
 ene: -3.23E-01 -3.16E-01 -3.08E-01 -2.90E-01 -2.85E-01 -2.39E-01 -2.18E-01 -2.00E-01
 ene: -1.49E-01 -8.59E-02  1.97E-02  6.45E-02  7.05E-02  8.03E-02  8.49E-02  8.75E-02
 ene:  9.01E-02  9.11E-02  9.57E-02  1.02E-01
 vtowfk : number of one-way 3D ffts skipped in vtowfk until now =32
     eigenvalues (hartree) for   60  bands
              after    3 non-SCF iterations with    4 CG line minimizations
 -8.5868E-01 -8.4918E-01 -8.3445E-01 -8.3224E-01 -8.2401E-01 -8.1316E-01
 -8.0838E-01 -7.8908E-01 -7.8576E-01 -7.6175E-01 -7.5415E-01 -7.3286E-01
 -7.2189E-01 -7.0646E-01 -6.5957E-01 -6.4723E-01 -6.2099E-01 -6.0457E-01
 -5.7343E-01 -5.5940E-01 -5.2929E-01 -5.1708E-01 -5.0141E-01 -4.9901E-01
 -4.9185E-01 -4.5893E-01 -4.5320E-01 -4.4515E-01 -4.3540E-01 -4.2349E-01
 -4.1642E-01 -3.9811E-01 -3.8783E-01 -3.8122E-01 -3.6879E-01 -3.6657E-01
 -3.5829E-01 -3.4707E-01 -3.4347E-01 -3.3498E-01 -3.2273E-01 -3.1619E-01
 -3.0805E-01 -2.8955E-01 -2.8455E-01 -2.3861E-01 -2.1801E-01 -2.0026E-01
 -1.4865E-01 -8.5924E-02  1.9677E-02  6.4525E-02  7.0478E-02  8.0325E-02
  8.4893E-02  8.7516E-02  9.0125E-02  9.1084E-02  9.5668E-02  1.0199E-01
 non-scf iterations; kpt #     9  , k= (  0.50000  0.00000  0.00000  ), band residuals:
 res:  2.77E-01  5.39E-01  3.15E-01  3.42E-01  3.40E-01  3.46E-01  3.53E-01  2.86E-01
 res:  3.37E-01  3.42E-01  3.78E-01  3.89E-01  3.63E-01  3.63E-01  3.56E-01  3.21E-01
 res:  2.83E-01  2.39E-01  2.33E-01  2.16E-01  1.66E-01  2.14E-01  1.50E-01  1.52E-01
 res:  1.36E-01  1.06E-01  1.57E-01  1.02E-01  8.47E-02  1.00E-01  1.33E-01  1.11E-01
 res:  6.95E-02  9.39E-02  6.61E-02  6.92E-02  9.12E-02  5.45E-02  4.66E-02  3.61E-02
 res:  4.83E-02  7.20E-02  8.62E-02  4.73E-02  8.20E-02  5.50E-02  6.06E-02  4.47E-02
 res:  5.45E-02  4.61E-02  5.66E-02  6.51E-02  5.81E-02  8.34E-02  4.57E-02  4.38E-02
 res:  4.02E-02  5.89E-02  4.81E-02  4.78E-02
 ene: -7.61E-01 -6.83E-01 -6.40E-01 -6.31E-01 -6.27E-01 -6.13E-01 -5.96E-01 -5.81E-01
 ene: -5.48E-01 -5.24E-01 -5.14E-01 -5.06E-01 -4.94E-01 -4.50E-01 -4.32E-01 -4.09E-01
 ene: -3.81E-01 -3.72E-01 -3.46E-01 -3.24E-01 -3.04E-01 -2.88E-01 -2.59E-01 -2.10E-01
 ene: -2.01E-01 -1.93E-01 -1.59E-01 -1.54E-01 -1.39E-01 -1.31E-01 -1.17E-01 -1.00E-01
 ene: -9.17E-02 -8.49E-02 -7.97E-02 -5.90E-02 -1.86E-02 -9.32E-03  1.64E-02  3.54E-02
 ene:  6.60E-02  7.02E-02  7.48E-02  8.04E-02  9.34E-02  1.03E-01  1.11E-01  1.22E-01
 ene:  1.22E-01  1.26E-01  1.30E-01  1.31E-01  1.33E-01  1.34E-01  1.38E-01  1.39E-01
 ene:  1.44E-01  1.48E-01  1.59E-01  1.75E-01
 res:  1.27E-02  2.08E-02  2.32E-02  2.49E-02  2.28E-02  2.51E-02  2.61E-02  2.32E-02
 res:  2.34E-02  2.21E-02  2.84E-02  2.59E-02  2.63E-02  2.71E-02  2.46E-02  2.61E-02
 res:  2.41E-02  1.94E-02  2.30E-02  2.86E-02  2.09E-02  1.54E-02  1.71E-02  2.61E-02
 res:  3.26E-02  3.74E-02  2.51E-02  2.67E-02  3.44E-02  3.23E-02  2.64E-02  4.44E-02
 res:  3.32E-02  3.07E-02  3.86E-02  4.04E-02  5.89E-02  4.97E-02  5.53E-02  6.15E-02
 res:  7.79E-02  8.94E-02  7.02E-02  9.22E-02  8.74E-02  1.08E-01  1.03E-01  1.11E-01
 res:  6.23E-02  9.52E-02  6.99E-02  6.75E-02  6.53E-02  5.86E-02  8.69E-02  4.78E-02
 res:  5.86E-02  2.66E-02  5.75E-02  4.09E-02
 ene: -8.47E-01 -8.46E-01 -8.37E-01 -8.37E-01 -8.22E-01 -8.22E-01 -8.02E-01 -8.01E-01
 ene: -7.75E-01 -7.75E-01 -7.44E-01 -7.44E-01 -7.14E-01 -7.13E-01 -6.56E-01 -6.54E-01
 ene: -6.13E-01 -6.11E-01 -5.67E-01 -5.66E-01 -5.22E-01 -5.19E-01 -4.85E-01 -4.80E-01
 ene: -4.72E-01 -4.70E-01 -4.58E-01 -4.51E-01 -4.33E-01 -4.18E-01 -4.07E-01 -3.97E-01
 ene: -3.89E-01 -3.83E-01 -3.75E-01 -3.72E-01 -3.68E-01 -3.55E-01 -3.55E-01 -3.41E-01
 ene: -3.33E-01 -3.30E-01 -3.24E-01 -3.12E-01 -2.87E-01 -2.76E-01 -2.65E-01 -2.46E-01
 ene: -2.17E-01 -1.85E-01 -9.85E-02 -3.33E-02  2.72E-02  6.04E-02  8.74E-02  9.82E-02
 ene:  1.05E-01  1.08E-01  1.09E-01  1.11E-01
 vtowfk : number of one-way 3D ffts skipped in vtowfk until now =36
     eigenvalues (hartree) for   60  bands
              after    3 non-SCF iterations with    4 CG line minimizations
 -8.4727E-01 -8.4621E-01 -8.3743E-01 -8.3685E-01 -8.2238E-01 -8.2174E-01
 -8.0164E-01 -8.0058E-01 -7.7502E-01 -7.7461E-01 -7.4421E-01 -7.4364E-01
 -7.1381E-01 -7.1281E-01 -6.5615E-01 -6.5424E-01 -6.1322E-01 -6.1122E-01
 -5.6701E-01 -5.6611E-01 -5.2176E-01 -5.1890E-01 -4.8498E-01 -4.8024E-01
 -4.7186E-01 -4.7018E-01 -4.5833E-01 -4.5150E-01 -4.3283E-01 -4.1819E-01
 -4.0708E-01 -3.9691E-01 -3.8869E-01 -3.8337E-01 -3.7546E-01 -3.7204E-01
 -3.6793E-01 -3.5547E-01 -3.5486E-01 -3.4062E-01 -3.3307E-01 -3.3039E-01
 -3.2368E-01 -3.1161E-01 -2.8720E-01 -2.7631E-01 -2.6487E-01 -2.4622E-01
 -2.1741E-01 -1.8485E-01 -9.8514E-02 -3.3312E-02  2.7155E-02  6.0450E-02
  8.7394E-02  9.8207E-02  1.0526E-01  1.0779E-01  1.0931E-01  1.1072E-01
 Total charge density [el/Bohr^3]
      Maximum=    2.8457E-01  at reduced coord.    0.3750    0.2708    0.0000
      Minimum=    2.8020E-04  at reduced coord.    0.6563    0.4282    0.4978
   Integrated=    1.1200E+02
 ETOT  1  -115.43176188594    -1.154E+02 1.112E-01 1.021E+07
 scprqt: <Vxc>= -1.0627913E-01 hartree

Simple mixing update:
  residual square of the potential :   118470.25196228969
 scfcv: previous iteration took 31:51

 ITER STEP NUMBER     2
 vtorho : nnsclo_now=2, note that nnsclo,dbl_nnsclo,istep=0 0 2
 non-scf iterations; kpt #     1  , k= (  0.00000  0.00000  0.00000  ), band residuals:
 res:  8.22E-03  1.24E-02  1.78E-02  2.20E-02  2.45E-02  2.53E-02  2.64E-02  2.78E-02
 res:  5.50E-03  9.54E-03  1.45E-02  2.97E-02  6.95E-03  1.68E-02  1.23E-02  2.03E-02
 res:  2.87E-02  2.08E-02  2.69E-02  2.12E-02  2.23E-02  1.18E-02  1.83E-02  2.17E-02
 res:  2.94E-02  1.74E-02  3.41E-02  3.30E-02  2.51E-02  3.06E-02  7.35E-02  2.62E-02
 res:  1.40E-02  1.58E-02  6.75E-02  2.34E-02  2.49E-02  5.21E-02  4.57E-02  9.98E-02
 res:  1.06E-01  1.51E-01  8.71E-02  1.08E-01  5.99E-02  3.45E-02  6.32E-02  4.92E-02
 res:  6.03E-02  3.66E-02  3.16E-02  2.50E-02  3.19E-02  4.12E-02  2.25E-02  2.84E-02
 res:  3.43E-02  2.94E-02  4.49E-02  5.72E-02
 ene: -1.79E+00 -1.75E+00 -1.70E+00 -1.66E+00 -1.61E+00 -1.61E+00 -1.58E+00 -1.57E+00
 ene: -1.57E+00 -1.55E+00 -1.53E+00 -1.51E+00 -1.49E+00 -1.49E+00 -1.46E+00 -1.44E+00
 ene: -1.44E+00 -1.41E+00 -1.40E+00 -1.39E+00 -1.36E+00 -1.36E+00 -1.35E+00 -1.32E+00
 ene: -1.31E+00 -1.30E+00 -1.29E+00 -1.26E+00 -1.25E+00 -1.24E+00 -1.23E+00 -1.20E+00
 ene: -1.19E+00 -1.18E+00 -1.17E+00 -1.14E+00 -1.12E+00 -1.11E+00 -1.09E+00 -1.06E+00
 ene: -1.05E+00 -9.73E-01 -9.45E-01 -9.12E-01 -5.63E-01 -4.87E-01 -4.40E-01 -4.17E-01
 ene: -3.93E-01 -3.79E-01 -3.53E-01 -3.36E-01 -3.02E-01 -2.65E-01 -2.49E-01 -2.16E-01
 ene: -2.06E-01 -1.90E-01 -1.80E-01 -1.54E-01
 res:  4.47E-04  4.22E-04  2.86E-04  1.83E-04  9.96E-05  3.63E-05  2.76E-05  2.94E-05
 res:  1.18E-04  5.65E-05  3.93E-05  8.10E-05  1.01E-04  6.78E-05  6.85E-05  1.51E-04
 res:  1.17E-04  2.61E-04  3.42E-04  5.75E-04  6.59E-04  3.96E-04  7.27E-04  1.53E-03
 res:  8.29E-04  2.41E-03  1.01E-04  4.89E-03  3.83E-03  3.18E-04  1.54E-03  4.25E-03
 res:  2.40E-03  1.55E-02  1.77E-02  6.37E-04  3.98E-02  6.61E-02  1.56E-03  1.76E-02
 res:  2.62E-03  5.43E-02  2.50E-02  3.86E-02  8.38E-03  2.21E-02  1.38E-02  7.17E-03
 res:  3.37E-02  4.95E-02  5.71E-02  1.55E-02  4.92E-02  4.01E-02  2.98E-02  6.21E-02
 res:  2.51E-02  3.95E-02  2.37E-02  1.37E-02
 ene: -1.79E+00 -1.75E+00 -1.71E+00 -1.66E+00 -1.61E+00 -1.61E+00 -1.58E+00 -1.57E+00
 ene: -1.57E+00 -1.55E+00 -1.53E+00 -1.51E+00 -1.49E+00 -1.49E+00 -1.46E+00 -1.45E+00
 ene: -1.44E+00 -1.42E+00 -1.40E+00 -1.40E+00 -1.37E+00 -1.36E+00 -1.36E+00 -1.34E+00
 ene: -1.31E+00 -1.31E+00 -1.29E+00 -1.28E+00 -1.27E+00 -1.25E+00 -1.24E+00 -1.22E+00
 ene: -1.22E+00 -1.21E+00 -1.20E+00 -1.20E+00 -1.18E+00 -1.15E+00 -1.11E+00 -1.10E+00
 ene: -1.09E+00 -1.06E+00 -1.01E+00 -9.91E-01 -7.80E-01 -7.28E-01 -6.75E-01 -6.19E-01
 ene: -5.92E-01 -5.66E-01 -5.44E-01 -5.16E-01 -4.91E-01 -4.38E-01 -4.24E-01 -3.89E-01
 ene: -3.58E-01 -3.36E-01 -3.04E-01 -2.77E-01
 vtowfk : number of one-way 3D ffts skipped in vtowfk until now =40
     eigenvalues (hartree) for   60  bands
              after    3 non-SCF iterations with    4 CG line minimizations
 -1.7919E+00 -1.7501E+00 -1.7055E+00 -1.6599E+00 -1.6141E+00 -1.6116E+00
 -1.5800E+00 -1.5732E+00 -1.5657E+00 -1.5460E+00 -1.5324E+00 -1.5092E+00
 -1.4921E+00 -1.4900E+00 -1.4563E+00 -1.4462E+00 -1.4441E+00 -1.4176E+00
 -1.4027E+00 -1.3995E+00 -1.3688E+00 -1.3608E+00 -1.3590E+00 -1.3423E+00
 -1.3147E+00 -1.3139E+00 -1.2906E+00 -1.2775E+00 -1.2738E+00 -1.2460E+00
 -1.2360E+00 -1.2234E+00 -1.2200E+00 -1.2089E+00 -1.1983E+00 -1.1971E+00
 -1.1760E+00 -1.1510E+00 -1.1101E+00 -1.1035E+00 -1.0855E+00 -1.0609E+00
 -1.0109E+00 -9.9081E-01 -7.8030E-01 -7.2769E-01 -6.7469E-01 -6.1872E-01
 -5.9221E-01 -5.6589E-01 -5.4448E-01 -5.1622E-01 -4.9134E-01 -4.3817E-01
 -4.2415E-01 -3.8884E-01 -3.5804E-01 -3.3559E-01 -3.0417E-01 -2.7698E-01
 non-scf iterations; kpt #     2  , k= (  0.06250  0.00000  0.00000  ), band residuals:
 res:  8.62E-03  1.20E-02  1.84E-02  2.28E-02  2.43E-02  2.56E-02  2.61E-02  6.41E-03
 res:  2.79E-02  9.93E-03  1.56E-02  2.04E-02  3.04E-02  2.50E-02  1.16E-02  9.99E-03
 res:  1.36E-02  2.41E-02  2.74E-02  2.27E-02  2.30E-02  1.49E-02  1.86E-02  2.26E-02
 res:  1.92E-02  2.60E-02  2.58E-02  3.67E-02  3.69E-02  4.30E-02  9.01E-03  1.18E-02
 res:  5.93E-02  1.74E-02  5.63E-02  2.31E-02  3.29E-02  5.29E-02  4.50E-02  1.15E-01
 res:  9.94E-02  1.36E-01  7.79E-02  3.92E-02  1.82E-01  5.38E-02  6.91E-02  6.90E-02
 res:  6.52E-02  4.46E-02  5.33E-02  2.94E-02  4.02E-02  4.98E-02  3.91E-02  4.78E-02
 res:  5.61E-02  6.28E-02  4.52E-02  5.31E-02
 ene: -1.79E+00 -1.75E+00 -1.70E+00 -1.66E+00 -1.62E+00 -1.61E+00 -1.58E+00 -1.57E+00
 ene: -1.56E+00 -1.54E+00 -1.54E+00 -1.51E+00 -1.49E+00 -1.49E+00 -1.45E+00 -1.45E+00
 ene: -1.43E+00 -1.41E+00 -1.41E+00 -1.39E+00 -1.36E+00 -1.36E+00 -1.35E+00 -1.32E+00
 ene: -1.31E+00 -1.29E+00 -1.29E+00 -1.26E+00 -1.25E+00 -1.24E+00 -1.22E+00 -1.21E+00
 ene: -1.19E+00 -1.18E+00 -1.16E+00 -1.14E+00 -1.13E+00 -1.11E+00 -1.09E+00 -1.09E+00
 ene: -1.02E+00 -1.00E+00 -9.73E-01 -9.61E-01 -9.18E-01 -6.08E-01 -5.42E-01 -4.83E-01
 ene: -4.24E-01 -4.06E-01 -3.81E-01 -3.55E-01 -3.26E-01 -3.08E-01 -2.68E-01 -2.62E-01
 ene: -2.32E-01 -2.00E-01 -1.62E-01 -1.28E-01
 res:  4.25E-04  4.59E-04  2.67E-04  1.71E-04  4.62E-05  1.13E-04  4.05E-05  4.94E-05
 res:  4.29E-05  3.81E-05  4.82E-05  6.58E-05  4.81E-05  6.22E-05  9.54E-05  1.04E-04
 res:  2.12E-04  4.95E-04  2.98E-04  4.62E-04  4.47E-04  6.13E-04  8.84E-04  1.82E-03
 res:  1.00E-03  2.32E-03  1.28E-03  2.87E-03  4.76E-03  4.15E-04  2.57E-03  4.11E-03
 res:  5.83E-04  1.07E-02  2.07E-02  3.45E-03  5.60E-02  4.49E-02  4.15E-03  3.05E-03
 res:  2.03E-02  1.17E-02  3.56E-02  2.82E-02  3.90E-02  9.55E-02  1.95E-02  3.83E-02
 res:  2.15E-02  9.36E-03  2.18E-02  2.89E-02  2.35E-02  3.03E-02  7.19E-02  2.02E-02
 res:  3.12E-02  3.36E-02  2.24E-02  1.56E-02
 ene: -1.79E+00 -1.75E+00 -1.70E+00 -1.66E+00 -1.62E+00 -1.61E+00 -1.58E+00 -1.57E+00
 ene: -1.56E+00 -1.54E+00 -1.54E+00 -1.51E+00 -1.50E+00 -1.49E+00 -1.46E+00 -1.45E+00
 ene: -1.44E+00 -1.42E+00 -1.41E+00 -1.39E+00 -1.37E+00 -1.36E+00 -1.36E+00 -1.34E+00
 ene: -1.32E+00 -1.31E+00 -1.29E+00 -1.28E+00 -1.27E+00 -1.25E+00 -1.23E+00 -1.22E+00
 ene: -1.22E+00 -1.21E+00 -1.20E+00 -1.20E+00 -1.18E+00 -1.14E+00 -1.11E+00 -1.10E+00
 ene: -1.08E+00 -1.06E+00 -1.05E+00 -1.03E+00 -1.00E+00 -9.15E-01 -7.61E-01 -7.25E-01
 ene: -6.18E-01 -5.71E-01 -5.25E-01 -5.18E-01 -4.97E-01 -4.70E-01 -4.39E-01 -4.30E-01
 ene: -4.19E-01 -3.63E-01 -3.29E-01 -3.04E-01
 vtowfk : number of one-way 3D ffts skipped in vtowfk until now =44
     eigenvalues (hartree) for   60  bands
              after    3 non-SCF iterations with    4 CG line minimizations
 -1.7911E+00 -1.7493E+00 -1.7048E+00 -1.6591E+00 -1.6231E+00 -1.6133E+00
 -1.5839E+00 -1.5715E+00 -1.5620E+00 -1.5402E+00 -1.5363E+00 -1.5074E+00
 -1.4953E+00 -1.4856E+00 -1.4550E+00 -1.4520E+00 -1.4370E+00 -1.4159E+00
 -1.4088E+00 -1.3934E+00 -1.3686E+00 -1.3628E+00 -1.3567E+00 -1.3401E+00
 -1.3202E+00 -1.3080E+00 -1.2896E+00 -1.2817E+00 -1.2711E+00 -1.2451E+00
 -1.2343E+00 -1.2237E+00 -1.2155E+00 -1.2090E+00 -1.2010E+00 -1.1974E+00
 -1.1840E+00 -1.1449E+00 -1.1126E+00 -1.1025E+00 -1.0763E+00 -1.0606E+00
 -1.0527E+00 -1.0332E+00 -1.0021E+00 -9.1502E-01 -7.6056E-01 -7.2520E-01
 -6.1839E-01 -5.7140E-01 -5.2532E-01 -5.1846E-01 -4.9663E-01 -4.7039E-01
 -4.3910E-01 -4.3037E-01 -4.1915E-01 -3.6315E-01 -3.2917E-01 -3.0388E-01
 non-scf iterations; kpt #     3  , k= (  0.12500  0.00000  0.00000  ), band residuals:
 res:  8.56E-03  1.23E-02  1.85E-02  2.24E-02  2.42E-02  2.54E-02  2.64E-02  6.52E-03
 res:  9.99E-03  1.76E-02  2.60E-02  2.01E-02  2.54E-02  3.07E-02  1.13E-02  1.44E-02
 res:  1.19E-02  2.39E-02  2.07E-02  2.59E-02  2.28E-02  2.32E-02  1.63E-02  1.79E-02
 res:  2.45E-02  2.27E-02  3.22E-02  5.50E-02  3.02E-02  3.39E-02  7.15E-03  1.10E-02
 res:  1.82E-02  4.87E-02  2.33E-02  6.35E-02  4.93E-02  6.16E-02  4.16E-02  7.76E-02
 res:  7.57E-02  9.22E-02  4.63E-02  9.71E-02  6.94E-02  9.72E-02  6.83E-02  6.20E-02
 res:  6.92E-02  5.31E-02  5.64E-02  5.15E-02  5.03E-02  3.31E-02  4.35E-02  4.14E-02
 res:  6.54E-02  3.30E-02  5.23E-02  3.78E-02
 ene: -1.79E+00 -1.75E+00 -1.70E+00 -1.66E+00 -1.64E+00 -1.61E+00 -1.60E+00 -1.57E+00
 ene: -1.55E+00 -1.54E+00 -1.52E+00 -1.51E+00 -1.49E+00 -1.48E+00 -1.46E+00 -1.44E+00
 ene: -1.42E+00 -1.42E+00 -1.40E+00 -1.38E+00 -1.37E+00 -1.36E+00 -1.34E+00 -1.32E+00
 ene: -1.31E+00 -1.29E+00 -1.28E+00 -1.27E+00 -1.24E+00 -1.22E+00 -1.22E+00 -1.20E+00
 ene: -1.19E+00 -1.18E+00 -1.15E+00 -1.14E+00 -1.13E+00 -1.11E+00 -1.09E+00 -1.06E+00
 ene: -1.05E+00 -1.02E+00 -9.65E-01 -9.53E-01 -9.21E-01 -7.18E-01 -5.59E-01 -4.85E-01
 ene: -4.41E-01 -3.96E-01 -3.81E-01 -3.46E-01 -3.26E-01 -3.08E-01 -2.90E-01 -2.54E-01
 ene: -2.24E-01 -1.96E-01 -1.88E-01 -1.33E-01
 res:  4.49E-04  4.47E-04  2.75E-04  1.84E-04  5.72E-05  1.10E-04  5.48E-05  7.85E-05
 res:  3.92E-05  3.76E-05  9.22E-05  4.01E-05  5.29E-05  9.08E-05  2.02E-04  1.58E-04
 res:  2.76E-04  6.53E-04  2.81E-04  3.40E-04  6.27E-04  3.78E-04  1.15E-03  1.04E-03
 res:  2.27E-03  1.81E-04  2.52E-03  3.20E-03  1.84E-04  5.26E-03  5.22E-03  7.82E-03
 res:  4.87E-04  1.33E-02  1.85E-02  2.89E-03  4.31E-02  2.13E-03  4.40E-03  2.94E-02
 res:  1.59E-02  4.13E-02  3.01E-02  1.99E-02  5.99E-02  7.71E-02  1.27E-02  9.61E-03
 res:  5.72E-02  2.62E-02  4.36E-02  1.65E-02  2.23E-02  8.91E-02  4.34E-02  4.25E-02
 res:  3.65E-02  1.67E-02  3.55E-02  2.17E-02
 ene: -1.79E+00 -1.75E+00 -1.70E+00 -1.66E+00 -1.64E+00 -1.61E+00 -1.60E+00 -1.57E+00
 ene: -1.55E+00 -1.54E+00 -1.52E+00 -1.51E+00 -1.49E+00 -1.48E+00 -1.46E+00 -1.45E+00
 ene: -1.43E+00 -1.42E+00 -1.41E+00 -1.38E+00 -1.37E+00 -1.36E+00 -1.35E+00 -1.33E+00
 ene: -1.33E+00 -1.30E+00 -1.29E+00 -1.29E+00 -1.25E+00 -1.24E+00 -1.24E+00 -1.23E+00
 ene: -1.21E+00 -1.20E+00 -1.20E+00 -1.19E+00 -1.16E+00 -1.14E+00 -1.13E+00 -1.11E+00
 ene: -1.10E+00 -1.07E+00 -1.05E+00 -1.03E+00 -1.00E+00 -9.74E-01 -8.19E-01 -7.33E-01
 ene: -6.99E-01 -6.16E-01 -5.73E-01 -5.45E-01 -4.97E-01 -4.78E-01 -4.51E-01 -4.41E-01
 ene: -4.13E-01 -3.72E-01 -3.42E-01 -3.17E-01
 vtowfk : number of one-way 3D ffts skipped in vtowfk until now =48
     eigenvalues (hartree) for   60  bands
              after    3 non-SCF iterations with    4 CG line minimizations
 -1.7887E+00 -1.7469E+00 -1.7024E+00 -1.6569E+00 -1.6421E+00 -1.6125E+00
 -1.6007E+00 -1.5709E+00 -1.5529E+00 -1.5418E+00 -1.5243E+00 -1.5150E+00
 -1.4914E+00 -1.4775E+00 -1.4642E+00 -1.4455E+00 -1.4260E+00 -1.4222E+00
 -1.4081E+00 -1.3841E+00 -1.3748E+00 -1.3610E+00 -1.3500E+00 -1.3329E+00
 -1.3313E+00 -1.2981E+00 -1.2906E+00 -1.2868E+00 -1.2524E+00 -1.2424E+00
 -1.2357E+00 -1.2282E+00 -1.2120E+00 -1.2035E+00 -1.1987E+00 -1.1947E+00
 -1.1557E+00 -1.1430E+00 -1.1288E+00 -1.1108E+00 -1.0963E+00 -1.0661E+00
 -1.0543E+00 -1.0284E+00 -1.0037E+00 -9.7359E-01 -8.1905E-01 -7.3250E-01
 -6.9869E-01 -6.1611E-01 -5.7320E-01 -5.4549E-01 -4.9660E-01 -4.7763E-01
 -4.5126E-01 -4.4080E-01 -4.1296E-01 -3.7210E-01 -3.4163E-01 -3.1739E-01
 non-scf iterations; kpt #     4  , k= (  0.18750  0.00000  0.00000  ), band residuals:
 res:  8.01E-03  1.21E-02  1.82E-02  2.26E-02  2.41E-02  2.54E-02  6.69E-03  1.16E-02
 res:  2.59E-02  1.65E-02  2.06E-02  2.79E-02  2.48E-02  3.00E-02  1.80E-02  2.43E-02
 res:  7.38E-03  1.93E-02  1.03E-02  2.28E-02  2.53E-02  2.35E-02  2.08E-02  1.99E-02
 res:  1.75E-02  1.95E-02  3.22E-02  3.05E-02  2.77E-02  4.55E-02  7.11E-03  1.33E-02
 res:  3.23E-02  2.25E-02  2.76E-02  2.43E-02  4.98E-02  5.75E-02  9.41E-02  4.66E-02
 res:  7.49E-02  7.15E-02  7.23E-02  5.18E-02  4.62E-02  9.83E-02  7.97E-02  8.16E-02
 res:  8.62E-02  3.66E-02  4.90E-02  4.21E-02  4.52E-02  3.88E-02  4.50E-02  4.63E-02
 res:  5.13E-02  3.42E-02  2.62E-02  3.87E-02
 ene: -1.78E+00 -1.74E+00 -1.70E+00 -1.66E+00 -1.65E+00 -1.62E+00 -1.61E+00 -1.58E+00
 ene: -1.55E+00 -1.53E+00 -1.52E+00 -1.51E+00 -1.49E+00 -1.47E+00 -1.46E+00 -1.44E+00
 ene: -1.43E+00 -1.41E+00 -1.39E+00 -1.39E+00 -1.36E+00 -1.35E+00 -1.34E+00 -1.33E+00
 ene: -1.31E+00 -1.29E+00 -1.28E+00 -1.26E+00 -1.24E+00 -1.23E+00 -1.22E+00 -1.20E+00
 ene: -1.19E+00 -1.18E+00 -1.15E+00 -1.14E+00 -1.13E+00 -1.12E+00 -1.10E+00 -1.09E+00
 ene: -1.08E+00 -1.07E+00 -1.04E+00 -1.01E+00 -9.88E-01 -9.48E-01 -9.30E-01 -8.80E-01
 ene: -5.42E-01 -4.78E-01 -4.41E-01 -3.95E-01 -3.60E-01 -3.24E-01 -3.02E-01 -2.79E-01
 ene: -2.67E-01 -2.45E-01 -2.24E-01 -1.83E-01
 res:  4.18E-04  4.02E-04  2.61E-04  6.85E-05  1.73E-04  6.26E-05  1.19E-04  5.24E-05
 res:  7.48E-05  3.77E-05  3.60E-05  5.22E-05  5.01E-05  3.91E-05  9.63E-05  1.34E-04
 res:  9.50E-05  2.63E-04  2.30E-04  4.27E-04  3.31E-04  4.55E-04  7.27E-04  5.39E-04
 res:  1.85E-03  2.43E-03  1.73E-04  4.08E-03  1.87E-03  5.60E-04  2.31E-03  1.07E-02
 res:  4.92E-03  4.91E-04  3.25E-02  1.94E-02  5.70E-03  4.09E-03  2.89E-02  1.17E-02
 res:  6.33E-03  3.64E-02  9.68E-03  2.05E-02  2.20E-02  4.77E-02  4.91E-02  3.05E-02
 res:  6.94E-03  2.07E-02  2.27E-02  1.12E-02  1.54E-02  4.66E-02  1.46E-02  4.31E-02
 res:  4.68E-02  2.05E-02  3.05E-02  2.72E-02
 ene: -1.78E+00 -1.74E+00 -1.70E+00 -1.66E+00 -1.65E+00 -1.62E+00 -1.61E+00 -1.58E+00
 ene: -1.55E+00 -1.53E+00 -1.52E+00 -1.51E+00 -1.49E+00 -1.48E+00 -1.46E+00 -1.44E+00
 ene: -1.43E+00 -1.41E+00 -1.40E+00 -1.39E+00 -1.36E+00 -1.36E+00 -1.35E+00 -1.34E+00
 ene: -1.32E+00 -1.31E+00 -1.29E+00 -1.28E+00 -1.26E+00 -1.25E+00 -1.24E+00 -1.23E+00
 ene: -1.22E+00 -1.21E+00 -1.20E+00 -1.19E+00 -1.18E+00 -1.14E+00 -1.14E+00 -1.13E+00
 ene: -1.10E+00 -1.09E+00 -1.08E+00 -1.06E+00 -1.05E+00 -1.02E+00 -1.00E+00 -9.65E-01
 ene: -7.63E-01 -6.61E-01 -6.10E-01 -5.61E-01 -5.44E-01 -5.09E-01 -4.93E-01 -4.57E-01
 ene: -4.37E-01 -4.12E-01 -3.68E-01 -3.44E-01
 vtowfk : number of one-way 3D ffts skipped in vtowfk until now =52
     eigenvalues (hartree) for   60  bands
              after    3 non-SCF iterations with    4 CG line minimizations
 -1.7847E+00 -1.7430E+00 -1.6985E+00 -1.6614E+00 -1.6530E+00 -1.6227E+00
 -1.6057E+00 -1.5817E+00 -1.5550E+00 -1.5322E+00 -1.5190E+00 -1.5134E+00
 -1.4876E+00 -1.4750E+00 -1.4607E+00 -1.4401E+00 -1.4304E+00 -1.4141E+00
 -1.3970E+00 -1.3939E+00 -1.3636E+00 -1.3552E+00 -1.3514E+00 -1.3397E+00
 -1.3224E+00 -1.3056E+00 -1.2859E+00 -1.2821E+00 -1.2617E+00 -1.2523E+00
 -1.2377E+00 -1.2284E+00 -1.2220E+00 -1.2098E+00 -1.1985E+00 -1.1905E+00
 -1.1817E+00 -1.1427E+00 -1.1408E+00 -1.1310E+00 -1.1007E+00 -1.0901E+00
 -1.0775E+00 -1.0640E+00 -1.0540E+00 -1.0221E+00 -9.9969E-01 -9.6527E-01
 -7.6287E-01 -6.6051E-01 -6.0999E-01 -5.6133E-01 -5.4383E-01 -5.0930E-01
 -4.9281E-01 -4.5728E-01 -4.3678E-01 -4.1161E-01 -3.6816E-01 -3.4383E-01
 non-scf iterations; kpt #     5  , k= (  0.25000  0.00000  0.00000  ), band residuals:
 res:  8.71E-03  1.19E-02  1.83E-02  2.22E-02  2.40E-02  1.00E-02  2.43E-02  1.10E-02
 res:  1.71E-02  2.79E-02  1.98E-02  2.15E-02  2.98E-02  2.83E-02  2.02E-02  2.10E-02
 res:  2.38E-02  2.23E-02  5.17E-03  5.30E-03  2.15E-02  2.18E-02  2.29E-02  1.48E-02
 res:  1.88E-02  2.75E-02  2.56E-02  4.69E-02  2.78E-02  3.20E-02  9.35E-03  1.46E-02
 res:  5.32E-02  1.92E-02  4.99E-02  2.33E-02  6.28E-02  3.85E-02  7.33E-02  3.01E-02
 res:  2.67E-02  3.09E-02  5.69E-02  5.67E-02  9.29E-02  1.18E-01  6.86E-02  1.10E-01
 res:  1.16E-01  1.04E-01  5.35E-02  4.59E-02  5.70E-02  5.76E-02  3.72E-02  4.69E-02
 res:  2.81E-02  3.41E-02  4.28E-02  3.59E-02
 ene: -1.78E+00 -1.74E+00 -1.69E+00 -1.68E+00 -1.65E+00 -1.64E+00 -1.60E+00 -1.60E+00
 ene: -1.55E+00 -1.55E+00 -1.51E+00 -1.50E+00 -1.49E+00 -1.46E+00 -1.46E+00 -1.45E+00
 ene: -1.41E+00 -1.41E+00 -1.40E+00 -1.37E+00 -1.36E+00 -1.35E+00 -1.33E+00 -1.32E+00
 ene: -1.31E+00 -1.29E+00 -1.27E+00 -1.26E+00 -1.25E+00 -1.23E+00 -1.21E+00 -1.20E+00
 ene: -1.18E+00 -1.18E+00 -1.17E+00 -1.15E+00 -1.13E+00 -1.12E+00 -1.11E+00 -1.10E+00
 ene: -1.09E+00 -1.06E+00 -1.04E+00 -1.02E+00 -1.00E+00 -9.54E-01 -9.36E-01 -8.95E-01
 ene: -6.95E-01 -5.34E-01 -4.84E-01 -4.09E-01 -3.77E-01 -3.23E-01 -3.01E-01 -2.76E-01
 ene: -2.47E-01 -2.28E-01 -2.10E-01 -1.62E-01
 res:  4.89E-04  3.83E-04  2.36E-04  9.94E-05  1.48E-04  8.92E-05  1.15E-04  6.15E-05
 res:  6.89E-05  5.28E-05  4.95E-05  4.62E-05  2.77E-05  9.32E-05  5.24E-05  1.58E-04
 res:  2.28E-04  2.00E-04  3.69E-04  3.24E-04  5.43E-04  3.51E-04  9.50E-04  1.25E-03
 res:  1.50E-03  2.54E-03  1.19E-04  2.64E-03  4.15E-03  1.59E-04  2.10E-03  7.17E-03
 res:  1.13E-02  5.92E-03  7.78E-03  3.00E-03  9.06E-03  1.28E-02  2.47E-02  1.18E-02
 res:  1.01E-02  4.94E-03  3.59E-02  3.41E-02  1.41E-02  3.63E-02  3.60E-02  4.29E-02
 res:  8.68E-02  2.35E-02  1.07E-01  1.39E-02  8.36E-03  1.52E-02  1.45E-02  2.28E-02
 res:  2.14E-02  1.24E-02  2.41E-02  1.12E-02
 ene: -1.78E+00 -1.74E+00 -1.69E+00 -1.68E+00 -1.65E+00 -1.64E+00 -1.60E+00 -1.60E+00
 ene: -1.55E+00 -1.55E+00 -1.51E+00 -1.50E+00 -1.49E+00 -1.46E+00 -1.46E+00 -1.45E+00
 ene: -1.41E+00 -1.41E+00 -1.41E+00 -1.38E+00 -1.36E+00 -1.35E+00 -1.35E+00 -1.34E+00
 ene: -1.32E+00 -1.31E+00 -1.28E+00 -1.28E+00 -1.28E+00 -1.25E+00 -1.24E+00 -1.23E+00
 ene: -1.22E+00 -1.21E+00 -1.20E+00 -1.19E+00 -1.18E+00 -1.16E+00 -1.14E+00 -1.13E+00
 ene: -1.11E+00 -1.10E+00 -1.08E+00 -1.08E+00 -1.05E+00 -1.02E+00 -1.01E+00 -9.87E-01
 ene: -9.35E-01 -8.42E-01 -5.84E-01 -5.57E-01 -5.20E-01 -5.05E-01 -4.72E-01 -4.57E-01
 ene: -4.14E-01 -3.76E-01 -3.52E-01 -3.14E-01
 vtowfk : number of one-way 3D ffts skipped in vtowfk until now =56
     eigenvalues (hartree) for   60  bands
              after    3 non-SCF iterations with    4 CG line minimizations
 -1.7791E+00 -1.7375E+00 -1.6931E+00 -1.6798E+00 -1.6478E+00 -1.6400E+00
 -1.6021E+00 -1.5967E+00 -1.5534E+00 -1.5456E+00 -1.5072E+00 -1.5032E+00
 -1.4938E+00 -1.4582E+00 -1.4564E+00 -1.4487E+00 -1.4132E+00 -1.4108E+00
 -1.4053E+00 -1.3788E+00 -1.3643E+00 -1.3541E+00 -1.3451E+00 -1.3353E+00
 -1.3200E+00 -1.3121E+00 -1.2812E+00 -1.2767E+00 -1.2754E+00 -1.2523E+00
 -1.2350E+00 -1.2314E+00 -1.2193E+00 -1.2068E+00 -1.1995E+00 -1.1851E+00
 -1.1826E+00 -1.1622E+00 -1.1401E+00 -1.1305E+00 -1.1110E+00 -1.0991E+00
 -1.0848E+00 -1.0797E+00 -1.0481E+00 -1.0230E+00 -1.0116E+00 -9.8673E-01
 -9.3474E-01 -8.4234E-01 -5.8389E-01 -5.5731E-01 -5.1970E-01 -5.0477E-01
 -4.7156E-01 -4.5744E-01 -4.1405E-01 -3.7629E-01 -3.5226E-01 -3.1368E-01
 non-scf iterations; kpt #     6  , k= (  0.31250  0.00000  0.00000  ), band residuals:
 res:  8.87E-03  1.20E-02  1.79E-02  2.19E-02  2.37E-02  7.86E-03  1.06E-02  2.02E-02
 res:  2.30E-02  2.15E-02  2.59E-02  2.44E-02  2.78E-02  2.91E-02  1.99E-02  2.09E-02
 res:  2.17E-02  2.53E-02  2.17E-02  2.46E-02  4.53E-03  2.05E-02  2.06E-02  2.76E-02
 res:  1.40E-02  2.83E-02  2.79E-02  2.88E-02  2.76E-02  3.53E-02  6.46E-03  1.15E-02
 res:  9.21E-02  3.29E-02  4.25E-02  3.75E-02  5.83E-02  6.69E-02  4.17E-02  2.49E-02
 res:  3.26E-02  4.44E-02  9.17E-02  7.04E-02  7.94E-02  1.28E-01  1.19E-01  1.56E-01
 res:  1.37E-01  5.51E-02  7.44E-02  4.87E-02  4.95E-02  4.18E-02  5.01E-02  3.96E-02
 res:  3.95E-02  3.80E-02  3.77E-02  4.87E-02
 ene: -1.77E+00 -1.73E+00 -1.70E+00 -1.69E+00 -1.66E+00 -1.64E+00 -1.61E+00 -1.60E+00
 ene: -1.56E+00 -1.54E+00 -1.52E+00 -1.50E+00 -1.47E+00 -1.47E+00 -1.44E+00 -1.43E+00
 ene: -1.42E+00 -1.39E+00 -1.39E+00 -1.37E+00 -1.35E+00 -1.34E+00 -1.33E+00 -1.32E+00
 ene: -1.31E+00 -1.28E+00 -1.27E+00 -1.26E+00 -1.25E+00 -1.22E+00 -1.22E+00 -1.20E+00
 ene: -1.19E+00 -1.18E+00 -1.16E+00 -1.16E+00 -1.15E+00 -1.15E+00 -1.13E+00 -1.11E+00
 ene: -1.10E+00 -1.08E+00 -1.07E+00 -1.05E+00 -1.03E+00 -9.98E-01 -9.76E-01 -9.23E-01
 ene: -8.70E-01 -5.33E-01 -4.46E-01 -4.26E-01 -3.58E-01 -3.43E-01 -3.10E-01 -2.69E-01
 ene: -2.45E-01 -2.34E-01 -2.09E-01 -1.61E-01
 res:  4.63E-04  3.30E-04  1.42E-04  2.13E-04  8.93E-05  1.49E-04  8.18E-05  1.05E-04
 res:  6.59E-05  9.06E-05  4.78E-05  1.97E-04  8.79E-05  5.46E-05  1.19E-04  1.64E-04
 res:  1.56E-04  3.84E-04  4.11E-04  6.92E-04  6.69E-04  6.63E-04  1.00E-03  1.70E-03
 res:  2.04E-03  2.56E-03  2.53E-03  1.06E-03  4.31E-03  2.42E-03  4.64E-03  5.23E-03
 res:  1.43E-02  1.06E-02  5.59E-03  4.37E-03  1.10E-02  1.40E-02  2.26E-03  9.07E-03
 res:  1.52E-02  2.77E-03  3.56E-03  1.66E-02  3.21E-02  8.27E-03  3.15E-02  2.92E-02
 res:  3.73E-02  4.89E-02  1.56E-02  3.78E-02  1.71E-02  3.80E-02  3.77E-02  3.51E-02
[...]
  -0.40873   -0.40041   -0.39680   -0.39268   -0.39250   -0.37774   -0.37024   -0.36930
  -0.35788   -0.35202   -0.34188   -0.34073   -0.32448   -0.32349   -0.31602   -0.30934
  -0.29980   -0.28187   -0.27241   -0.26004   -0.25995   -0.25893   -0.24563   -0.24163
  -0.13872   -0.13858   -0.09490   -0.09307
 kpt#   7, nband= 60, wtk=  0.12500, kpt=  0.3750  0.0000  0.0000 (reduced coord)
  -0.84379   -0.83783   -0.82379   -0.80380   -0.79021   -0.78614   -0.77532   -0.77113
  -0.75045   -0.74363   -0.72376   -0.70716   -0.69377   -0.67801   -0.62884   -0.61462
  -0.58918   -0.57413   -0.54177   -0.53500   -0.50606   -0.49709   -0.49484   -0.49213
  -0.46654   -0.44886   -0.44452   -0.43645   -0.42838   -0.42571   -0.41166   -0.40588
  -0.40308   -0.39873   -0.39773   -0.38642   -0.38507   -0.38181   -0.38044   -0.37540
  -0.36788   -0.35975   -0.35705   -0.34365   -0.33659   -0.33635   -0.33080   -0.32035
  -0.29964   -0.29940   -0.27523   -0.26851   -0.26079   -0.26074   -0.25331   -0.24845
  -0.14630   -0.14621   -0.09345   -0.08843
 kpt#   8, nband= 60, wtk=  0.12500, kpt=  0.4375  0.0000  0.0000 (reduced coord)
  -0.83294   -0.82718   -0.81360   -0.80641   -0.80016   -0.79432   -0.78451   -0.77047
  -0.76091   -0.74237   -0.72986   -0.70995   -0.69580   -0.68154   -0.62993   -0.61897
  -0.58903   -0.57699   -0.54238   -0.53399   -0.49735   -0.49384   -0.46997   -0.46703
  -0.46275   -0.44653   -0.42733   -0.42585   -0.42478   -0.41570   -0.40882   -0.40702
  -0.40173   -0.39861   -0.39295   -0.39165   -0.39018   -0.38484   -0.38471   -0.37612
  -0.36941   -0.36918   -0.36177   -0.35358   -0.34914   -0.34781   -0.33741   -0.32192
  -0.31477   -0.29427   -0.28680   -0.26828   -0.26110   -0.26107   -0.26025   -0.25205
  -0.15132   -0.15126   -0.09239   -0.08658
 kpt#   9, nband= 60, wtk=  0.06250, kpt=  0.5000  0.0000  0.0000 (reduced coord)
  -0.82072   -0.82072   -0.81475   -0.81475   -0.80074   -0.80073   -0.78002   -0.78002
  -0.75314   -0.75314   -0.72094   -0.72094   -0.68837   -0.68836   -0.62560   -0.62560
  -0.58339   -0.58339   -0.53813   -0.53813   -0.49393   -0.49393   -0.45822   -0.45822
  -0.44515   -0.44514   -0.43459   -0.43459   -0.40907   -0.40906   -0.40604   -0.40603
  -0.40409   -0.40408   -0.39960   -0.39960   -0.38635   -0.38635   -0.37824   -0.37824
  -0.37016   -0.37016   -0.36115   -0.36114   -0.35455   -0.35454   -0.33290   -0.33289
  -0.30647   -0.30647   -0.27836   -0.27836   -0.26116   -0.26115   -0.25643   -0.25643
  -0.15306   -0.15304   -0.08948   -0.08948
 Total charge density [el/Bohr^3]
      Maximum=    4.5414E-01  at reduced coord.    0.1250    0.0023    0.0000
 Next maximum=    4.5063E-01  at reduced coord.    0.2188    0.0023    0.0000
      Minimum=    0.0000E+00  at reduced coord.    0.0000    0.4491    0.0000
 Next minimum=    0.0000E+00  at reduced coord.    0.3438    0.4491    0.0000
   Integrated=    1.1200E+02

 Cartesian components of stress tensor (hartree/bohr^3)
  sigma(1 1)=  2.01326847E-05  sigma(3 2)=  0.00000000E+00
  sigma(2 2)=  3.03532132E-05  sigma(3 1)=  0.00000000E+00
  sigma(3 3)=  2.30281740E-05  sigma(2 1)=  0.00000000E+00

-Cartesian components of stress tensor (GPa)         [Pressure= -7.2095E-01 GPa]
- sigma(1 1)=  5.92323933E-01  sigma(3 2)=  0.00000000E+00
- sigma(2 2)=  8.93022212E-01  sigma(3 1)=  0.00000000E+00
- sigma(3 3)=  6.77512157E-01  sigma(2 1)=  0.00000000E+00

== END DATASET(S) ==============================================================
================================================================================
  
 -outvars: echo values of variables after computation  --------
            acell      8.0502333261E+00  1.0582466344E+02  5.6691783987E+01 Bohr
              amu      1.20110000E+01
           diemac      1.00000000E+01
             ecut      1.90000000E+01 Hartree
           etotal     -1.6840817077E+02
            fcart     -8.7085209457E-04  1.0254184595E-03 -0.0000000000E+00
                       1.7679198169E-04  2.8903773672E-04 -0.0000000000E+00
                      -5.7625236139E-05  1.1781079660E-04 -0.0000000000E+00
                      -1.9302590021E-04  1.6759105199E-03 -0.0000000000E+00
                       2.0011378482E-04  1.2406298148E-03 -0.0000000000E+00
                       2.5395658701E-04  4.7183183061E-04 -0.0000000000E+00
                      -8.1397672420E-05  1.0164432008E-04 -0.0000000000E+00
                      -9.8695212043E-05 -1.1792803654E-04 -0.0000000000E+00
                       2.5812126851E-04 -5.0860944089E-04 -0.0000000000E+00
                       2.0208388407E-04 -1.2313628486E-03 -0.0000000000E+00
                      -1.6257407228E-04 -1.6180490496E-03 -0.0000000000E+00
                      -9.2733664116E-05 -9.1863819754E-05 -0.0000000000E+00
                       1.5925716766E-04 -3.5503393115E-04 -0.0000000000E+00
                      -9.7198626598E-04 -9.9943635157E-04 -0.0000000000E+00
                       8.7085209457E-04  1.0254184595E-03 -0.0000000000E+00
                      -1.7679198169E-04  2.8903773672E-04 -0.0000000000E+00
                       5.7625236139E-05  1.1781079660E-04 -0.0000000000E+00
                       1.9302590021E-04  1.6759105199E-03 -0.0000000000E+00
                      -2.0011378482E-04  1.2406298148E-03 -0.0000000000E+00
                      -2.5395658701E-04  4.7183183061E-04 -0.0000000000E+00
                       8.1397672420E-05  1.0164432008E-04 -0.0000000000E+00
                       9.8695212043E-05 -1.1792803654E-04 -0.0000000000E+00
                      -2.5812126851E-04 -5.0860944089E-04 -0.0000000000E+00
                      -2.0208388407E-04 -1.2313628486E-03 -0.0000000000E+00
                       1.6257407228E-04 -1.6180490496E-03 -0.0000000000E+00
                       9.2733664116E-05 -9.1863819754E-05 -0.0000000000E+00
                      -1.5925716766E-04 -3.5503393115E-04 -0.0000000000E+00
                       9.7198626598E-04 -9.9943635157E-04 -0.0000000000E+00
-          fftalg         112
           getden          -1
           ionmov           2
           istwfk        2    0    0    0    0    0    0    0    3
              kpt      0.00000000E+00  0.00000000E+00  0.00000000E+00
                       6.25000000E-02  0.00000000E+00  0.00000000E+00
                       1.25000000E-01  0.00000000E+00  0.00000000E+00
                       1.87500000E-01  0.00000000E+00  0.00000000E+00
                       2.50000000E-01  0.00000000E+00  0.00000000E+00
                       3.12500000E-01  0.00000000E+00  0.00000000E+00
                       3.75000000E-01  0.00000000E+00  0.00000000E+00
                       4.37500000E-01  0.00000000E+00  0.00000000E+00
                       5.00000000E-01  0.00000000E+00  0.00000000E+00
         kptrlatt       16    0    0      0    1    0      0    0    1
          kptrlen      1.28803733E+02
P           mkmem           9
            natom          28
            nband          60
            ngfft          32     432     225
             nkpt           9
            nstep          10
             nsym           4
            ntime          10
           ntypat           1
              occ      2.000000  2.000000  2.000000  2.000000  2.000000  2.000000
                       2.000000  2.000000  2.000000  2.000000  2.000000  2.000000
                       2.000000  2.000000  2.000000  2.000000  2.000000  2.000000
                       2.000000  2.000000  2.000000  2.000000  2.000000  2.000000
                       2.000000  2.000000  2.000000  2.000000  2.000000  2.000000
                       2.000000  2.000000  2.000000  2.000000  2.000000  2.000000
                       2.000000  2.000000  2.000000  2.000000  2.000000  2.000000
                       2.000000  2.000000  2.000000  2.000000  2.000000  2.000000
                       2.000000  2.000000  2.000000  2.000000  2.000000  2.000000
                       2.000000  2.000000  0.000000  0.000000  0.000000  0.000000
          spgroup          25
           strten      2.0132684664E-05  3.0353213150E-05  2.3028174027E-05
                       0.0000000000E+00  0.0000000000E+00  0.0000000000E+00
           symrel      1  0  0   0  1  0   0  0  1      -1  0  0   0  1  0   0  0 -1
                       1  0  0   0  1  0   0  0 -1      -1  0  0   0  1  0   0  0  1
            tnons      0.0000000  0.0000000  0.0000000     0.3333333  0.0000000  0.0000000
                       0.0000000  0.0000000  0.0000000     0.3333333  0.0000000  0.0000000
           toldfe      1.00000000E-06 Hartree
           tolmxf      5.00000000E-04
            typat      1  1  1  1  1  1  1  1  1  1  1  1  1  1  1  1  1  1  1  1
                       1  1  1  1  1  1  1  1
              wtk        0.06250    0.12500    0.12500    0.12500    0.12500    0.12500
                         0.12500    0.12500    0.06250
           xangst      9.4480947885E-02  8.9047015218E-02  3.3087719839E-30
                       2.1467100117E+00  1.2114094373E+00  3.2876387776E-30
                       2.2474140140E-03  2.4450942019E+00  3.3662712554E-30
                       2.1326558578E+00  3.6746962043E+00  3.3331536151E-30
                       2.2274853768E-04  4.9084018295E+00 -1.0717608007E-29
                       2.1289059601E+00  6.1407958192E+00  3.3510383966E-30
                       6.6686262080E-04  7.3755370741E+00 -1.8997665017E-29
                       2.1306797129E+00  8.6113873994E+00  3.3269550165E-30
                      -1.0896084052E-03  9.8461101988E+00  3.3087719839E-30
                       2.1302304040E+00  1.1078418033E+01  3.3087719839E-30
                       2.6346662490E-03  1.2312051760E+01  3.3076165214E-30
                       2.1322604989E+00  1.3541680949E+01  3.3259735935E-30
                       1.6724221946E-02  1.4775452353E+01  3.3087719839E-30
                       2.2245136424E+00  1.5897717726E+01  3.3087719839E-30
                       1.3255190521E+00  8.9047015218E-02  3.3087719839E-30
                      -7.2671001173E-01  1.2114094373E+00  4.7228880142E-30
                       1.4177525860E+00  2.4450942019E+00  3.2905889513E-30
                      -7.1265585784E-01  3.6746962043E+00  3.3087719839E-30
                       1.4197772515E+00  4.9084018295E+00  3.3087719839E-30
                      -7.0890596013E-01  6.1407958192E+00 -8.0913153231E-30
                       1.4193331374E+00  7.3755370741E+00  3.3087719839E-30
                      -7.1067971294E-01  8.6113873994E+00  3.3087719839E-30
                       1.4210896084E+00  9.8461101988E+00 -3.1852524742E-29
                      -7.1023040402E-01  1.1078418033E+01  3.3087719839E-30
                       1.4173653338E+00  1.2312051760E+01  3.3204566425E-30
                      -7.1226049893E-01  1.3541680949E+01  1.8906280678E-29
                       1.4032757781E+00  1.4775452353E+01  3.3087719839E-30
                      -8.0451364243E-01  1.5897717726E+01 -2.3585012180E-29
            xcart      1.7854311628E-01  1.6827447171E-01  6.2526728858E-30
                       4.0566940089E+00  2.2892320714E+00  6.2127369134E-30
                       4.2469969937E-03  4.6205584107E+00  6.3613307617E-30
                       4.0301355070E+00  6.9441694477E+00  6.2987474913E-30
                       4.2093373272E-04  9.2755352079E+00 -2.0253343933E-29
                       4.0230492273E+00  1.1604422336E+01  6.3325448304E-30
                       1.2601877216E-03  1.3937745153E+01 -3.5900384046E-29
                       4.0264011344E+00  1.6273163809E+01  6.2870338376E-30
                      -2.0590614778E-03  1.8606451750E+01  6.2526728858E-30
                       4.0255520635E+00  2.0935176067E+01  6.2526728858E-30
                       4.9787976622E-03  2.3266405960E+01  6.2504893781E-30
                       4.0293883870E+00  2.5590068373E+01  6.2851792169E-30
                       3.1604199263E-02  2.7921558436E+01  6.2526728858E-30
                       4.2037215631E+00  3.0042332640E+01  6.2526728858E-30
                       2.5048679924E+00  1.6827447171E-01  6.2526728858E-30
                      -1.3732829002E+00  2.2892320714E+00  8.9249649031E-30
                       2.6791641117E+00  4.6205584107E+00  6.2183119339E-30
                      -1.3467243983E+00  6.9441694477E+00  6.2526728858E-30
                       2.6829901750E+00  9.2755352079E+00  6.2526728858E-30
                      -1.3396381186E+00  1.1604422336E+01 -1.5290370015E-29
                       2.6821509210E+00  1.3937745153E+01  6.2526728858E-30
                      -1.3429900257E+00  1.6273163809E+01  6.2526728858E-30
                       2.6854701702E+00  1.8606451750E+01 -6.0192548404E-29
                      -1.3421409548E+00  2.0935176067E+01  6.2526728858E-30
                       2.6784323110E+00  2.3266405960E+01  6.2747536905E-30
                      -1.3459772783E+00  2.5590068373E+01  3.5727692672E-29
                       2.6518069094E+00  2.7921558436E+01  6.2526728858E-30
                      -1.5203104544E+00  3.0042332640E+01 -4.4569213861E-29
             xred      2.2178626264E-02  1.5901252718E-03  1.1029239946E-31
                       5.0392253796E-01  2.1632311381E-02  1.0958795925E-31
                       5.2756197513E-04  4.3662396463E-02  1.1220904185E-31
                       5.0062344081E-01  6.5619575077E-02  1.1110512050E-31
                       5.2288389128E-05  8.7650032669E-02 -3.5725360023E-31
                       4.9974318313E-01  1.0965706820E-01  1.1170127989E-31
                       1.5654052132E-04  1.3170601918E-01 -6.3325550055E-31
                       5.0015955703E-01  1.5377477499E-01  1.1089850055E-31
                      -2.5577662093E-04  1.7582339641E-01  1.1029239946E-31
                       5.0005408545E-01  1.9782889344E-01  1.1029239946E-31
                       6.1846625564E-04  2.1985806714E-01  1.1025388405E-31
                       5.0053063355E-01  2.4181573124E-01  1.1086578645E-31
                       3.9258736961E-03  2.6384736344E-01  1.1029239946E-31
                       5.2218630104E-01  2.8388781654E-01  1.1029239946E-31
                       3.1115470707E-01  1.5901252718E-03  1.1029239946E-31
                      -1.7058920463E-01  2.1632311381E-02  1.5742960047E-31
                       3.3280577136E-01  4.3662396463E-02  1.0968629838E-31
                      -1.6729010747E-01  6.5619575077E-02  1.1029239946E-31
                       3.3328104494E-01  8.7650032669E-02  1.1029239946E-31
                      -1.6640984980E-01  1.0965706820E-01 -2.6971051077E-31
                       3.3317679281E-01  1.3170601918E-01  1.1029239946E-31
                      -1.6682622370E-01  1.5377477499E-01  1.1029239946E-31
                       3.3358910995E-01  1.7582339641E-01 -1.0617508247E-30
                      -1.6672075212E-01  1.9782889344E-01  1.1029239946E-31
                       3.3271486708E-01  2.1985806714E-01  1.1068188808E-31
                      -1.6719730022E-01  2.4181573124E-01  6.3020935593E-31
                       3.2940745964E-01  2.6384736344E-01  1.1029239946E-31
                      -1.8885296771E-01  2.8388781654E-01 -7.8616707268E-31
            znucl        6.00000

================================================================================
  

================================================================================

 Suggested references for the acknowledgment of ABINIT usage.

 The users of ABINIT have little formal obligations with respect to the ABINIT group
 (those specified in the GNU General Public License, http://www.gnu.org/copyleft/gpl.txt).
 However, it is common practice in the scientific literature,
 to acknowledge the efforts of people that have made the research possible.
 In this spirit, please find below suggested citations of work written by ABINIT developers,
 corresponding to implementations inside of ABINIT that you have used in the present run.
 Note also that it will be of great value to readers of publications presenting these results,
 to read papers enabling them to understand the theoretical formalism and details
 of the ABINIT implementation.
 For information on why they are suggested, see also http://www.abinit.org/about/?text=acknowledgments.
-
- [1] Recent developments in the ABINIT software package.
- Computer Phys. Comm. 205, 106 (2016).
- X.Gonze, F.Jollet, F.Abreu Araujo, D.Adams, B.Amadon, T.Applencourt,
- C.Audouze, J.-M.Beuken, J.Bieder, A.Bokhanchuk, E.Bousquet, F.Bruneval
- D.Caliste, M.Cote, F.Dahm, F.Da Pieve, M.Delaveau, M.Di Gennaro,
- B.Dorado, C.Espejo, G.Geneste, L.Genovese, A.Gerossier, M.Giantomassi,
- Y.Gillet, D.R.Hamann, L.He, G.Jomard, J.Laflamme Janssen, S.Le Roux,
- A.Levitt, A.Lherbier, F.Liu, I.Lukacevic, A.Martin, C.Martins,
- M.J.T.Oliveira, S.Ponce, Y.Pouillon, T.Rangel, G.-M.Rignanese,
- A.H.Romero, B.Rousseau, O.Rubel, A.A.Shukri, M.Stankovski, M.Torrent,
- M.J.Van Setten, B.Van Troeye, M.J.Verstraete, D.Waroquier, J.Wiktor,
- B.Xue, A.Zhou, J.W.Zwanziger.
- Comment : the fourth generic paper describing the ABINIT project.
- Note that a version of this paper, that is not formatted for Computer Phys. Comm. 
- is available at http://www.abinit.org/about/ABINIT16.pdf .
- The licence allows the authors to put it on the Web.
-
- [2] ABINIT : First-principles approach of materials and nanosystem properties.
- Computer Phys. Comm. 180, 2582-2615 (2009).
- X. Gonze, B. Amadon, P.-M. Anglade, J.-M. Beuken, F. Bottin, P. Boulanger, F. Bruneval,
- D. Caliste, R. Caracas, M. Cote, T. Deutsch, L. Genovese, Ph. Ghosez, M. Giantomassi
- S. Goedecker, D.R. Hamann, P. Hermet, F. Jollet, G. Jomard, S. Leroux, M. Mancini, S. Mazevet,
- M.J.T. Oliveira, G. Onida, Y. Pouillon, T. Rangel, G.-M. Rignanese, D. Sangalli, R. Shaltaf,
- M. Torrent, M.J. Verstraete, G. Zerah, J.W. Zwanziger
- Comment : the third generic paper describing the ABINIT project.
- Note that a version of this paper, that is not formatted for Computer Phys. Comm. 
- is available at http://www.abinit.org/about/ABINIT_CPC_v10.pdf .
- The licence allows the authors to put it on the Web.
-
- [3] A brief introduction to the ABINIT software package.
- Z. Kristallogr. 220, 558-562 (2005).
- X. Gonze, G.-M. Rignanese, M. Verstraete, J.-M. Beuken, Y. Pouillon, R. Caracas, F. Jollet,
- M. Torrent, G. Zerah, M. Mikami, Ph. Ghosez, M. Veithen, J.-Y. Raty, V. Olevano, F. Bruneval,
- L. Reining, R. Godby, G. Onida, D.R. Hamann, and D.C. Allan.
- Comment : the second generic paper describing the ABINIT project. Note that this paper
- should be cited especially if you are using the GW part of ABINIT, as several authors
- of this part are not in the list of authors of the first or third paper.
- The .pdf of the latter paper is available at http://www.abinit.org/about/zfk_0505-06_558-562.pdf.
- Note that it should not redistributed (Copyright by Oldenburg Wissenshaftverlag,
- the licence allows the authors to put it on the Web).
-
- And optionally:
-
- [4] First-principles computation of material properties : the ABINIT software project. 
- X. Gonze, J.-M. Beuken, R. Caracas, F. Detraux, M. Fuchs, G.-M. Rignanese, L. Sindic,
- M. Verstraete, G. Zerah, F. Jollet, M. Torrent, A. Roy, M. Mikami, Ph. Ghosez, J.-Y. Raty, D.C. Allan.
- Computational Materials Science 25, 478-492 (2002). http://dx.doi.org/10.1016/S0927-0256(02)00325-7
- Comment : the original paper describing the ABINIT project.

 Calculation completed.
.Delivered  22 WARNINGs and   2 COMMENTs to log file.

--- !FinalSummary
program: abinit
version: 8.4.1
start_datetime: Tue Aug 15 14:46:00 2017
end_datetime: Wed Aug 16 12:54:30 2017
overall_cpu_time:       80429.8
overall_wall_time:       79709.8
exit_requested_by_user: no 
timelimit: 0
pseudos: 
    C   : 6bf6ca08f4034aa8d90b0c6757b7adb1
usepaw: 0
mpi_procs: 1
omp_threads: 1
num_warnings: 22
num_comments: 2
...
