
.Version 8.4.1 of ABINIT 
.(sequential version, prepared for a x86_64_linux_gnu7.0 computer) 

.Copyright (C) 1998-2017 ABINIT group . 
 ABINIT comes with ABSOLUTELY NO WARRANTY.
 It is free software, and you are welcome to redistribute it
 under certain conditions (GNU General Public License,
 see ~abinit/COPYING or http://www.gnu.org/copyleft/gpl.txt).

 ABINIT is a project of the Universite Catholique de Louvain,
 Corning Inc. and other collaborators, see ~abinit/doc/developers/contributors.txt .
 Please read ~abinit/doc/users/acknowledgments.html for suggested
 acknowledgments of the ABINIT effort.
 For more information, see http://www.abinit.org .

.Starting date : Mon  7 Aug 2017.
- ( at 12h32 )
  
- input  file    -> graphene.in
- output file    -> graphene.out
- root for input  files -> graphene_xi
- root for output files -> graphene_xo


 DATASET    1 : space group P6/m m m (#191); Bravais hP (primitive hexag.)
================================================================================
 Values of the parameters that define the memory need for DATASET  1.
     intxc =       0    ionmov =       0      iscf =       7    lmnmax =       1
     lnmax =       1     mgfft =      72  mpssoang =       2    mqgrid =    3453
     natom =       2  nloc_mem =       1    nspden =       1   nspinor =       1
    nsppol =       1      nsym =      24    n1xccc =    2501    ntypat =       1
    occopt =       1   xclevel =       1
-    mband =           5        mffmem =           1         mkmem =           8
       mpw =        1205          nfft =       23328          nkpt =           8
================================================================================
P This job should need less than                       8.073 Mbytes of memory.
  Rough estimation (10% accuracy) of disk space for files :
_ WF disk file :      0.737 Mbytes ; DEN or POT disk file :      0.180 Mbytes.
================================================================================


 DATASET    2 : space group P6/m m m (#191); Bravais hP (primitive hexag.)
================================================================================
 Values of the parameters that define the memory need for DATASET  2.
     intxc =       0    ionmov =       0      iscf =      -2    lmnmax =       1
     lnmax =       1     mgfft =      72  mpssoang =       2    mqgrid =    3453
     natom =       2  nloc_mem =       1    nspden =       1   nspinor =       1
    nsppol =       1      nsym =      24    n1xccc =    2501    ntypat =       1
    occopt =       1   xclevel =       1
-    mband =           8        mffmem =           1         mkmem =         237
       mpw =        1205          nfft =       23328          nkpt =         237
================================================================================
P This job should need less than                      42.793 Mbytes of memory.
  Rough estimation (10% accuracy) of disk space for files :
_ WF disk file :     34.863 Mbytes ; DEN or POT disk file :      0.180 Mbytes.
================================================================================

--------------------------------------------------------------------------------
------------- Echo of variables that govern the present computation ------------
--------------------------------------------------------------------------------
-
- outvars: echo of selected default values                                      
-   iomode0 =  0 , fftalg0 =112 , wfoptalg0 =  0
-
- outvars: echo of global parameters not present in the input file              
-  max_nthreads =    0
-
 -outvars: echo values of preprocessed input variables --------
            acell      4.6394279353E+00  4.6394279353E+00  1.8601215051E+01 Bohr
              amu      1.20110000E+01
           diemac      1.20000000E+01
             ecut      1.70000000E+01 Hartree
           enunit1          0
           enunit2          1
-          fftalg         112
           getden1          0
           getden2         -1
             iscf1          7
             iscf2         -2
           istwfk2       2    0    0    0    0    0    0    0    0    0
                         0    0    0    0    0    0    0    0    0    0
                         0    0    0    0    0    0    0    0    0    0
                         0    0    0    0    0    0    0    0    0    0
                         0    0    0    0    0    0    0    0    0    0
                       outvar_i_n : Printing only first  50 k-points.
           jdtset        1    2
              kpt1     0.00000000E+00  0.00000000E+00  1.25000000E-01
                       2.50000000E-01  0.00000000E+00  1.25000000E-01
                       5.00000000E-01  0.00000000E+00  1.25000000E-01
                       2.50000000E-01  2.50000000E-01  1.25000000E-01
                       0.00000000E+00  0.00000000E+00  3.75000000E-01
                       2.50000000E-01  0.00000000E+00  3.75000000E-01
                       5.00000000E-01  0.00000000E+00  3.75000000E-01
                       2.50000000E-01  2.50000000E-01  3.75000000E-01
              kpt2     0.00000000E+00  0.00000000E+00  0.00000000E+00
                       5.81395349E-03  0.00000000E+00  0.00000000E+00
                       1.16279070E-02  0.00000000E+00  0.00000000E+00
                       1.74418605E-02  0.00000000E+00  0.00000000E+00
                       2.32558140E-02  0.00000000E+00  0.00000000E+00
                       2.90697674E-02  0.00000000E+00  0.00000000E+00
                       3.48837209E-02  0.00000000E+00  0.00000000E+00
                       4.06976744E-02  0.00000000E+00  0.00000000E+00
                       4.65116279E-02  0.00000000E+00  0.00000000E+00
                       5.23255814E-02  0.00000000E+00  0.00000000E+00
                       5.81395349E-02  0.00000000E+00  0.00000000E+00
                       6.39534884E-02  0.00000000E+00  0.00000000E+00
                       6.97674419E-02  0.00000000E+00  0.00000000E+00
                       7.55813953E-02  0.00000000E+00  0.00000000E+00
                       8.13953488E-02  0.00000000E+00  0.00000000E+00
                       8.72093023E-02  0.00000000E+00  0.00000000E+00
                       9.30232558E-02  0.00000000E+00  0.00000000E+00
                       9.88372093E-02  0.00000000E+00  0.00000000E+00
                       1.04651163E-01  0.00000000E+00  0.00000000E+00
                       1.10465116E-01  0.00000000E+00  0.00000000E+00
                       1.16279070E-01  0.00000000E+00  0.00000000E+00
                       1.22093023E-01  0.00000000E+00  0.00000000E+00
                       1.27906977E-01  0.00000000E+00  0.00000000E+00
                       1.33720930E-01  0.00000000E+00  0.00000000E+00
                       1.39534884E-01  0.00000000E+00  0.00000000E+00
                       1.45348837E-01  0.00000000E+00  0.00000000E+00
                       1.51162791E-01  0.00000000E+00  0.00000000E+00
                       1.56976744E-01  0.00000000E+00  0.00000000E+00
                       1.62790698E-01  0.00000000E+00  0.00000000E+00
                       1.68604651E-01  0.00000000E+00  0.00000000E+00
                       1.74418605E-01  0.00000000E+00  0.00000000E+00
                       1.80232558E-01  0.00000000E+00  0.00000000E+00
                       1.86046512E-01  0.00000000E+00  0.00000000E+00
                       1.91860465E-01  0.00000000E+00  0.00000000E+00
                       1.97674419E-01  0.00000000E+00  0.00000000E+00
                       2.03488372E-01  0.00000000E+00  0.00000000E+00
                       2.09302326E-01  0.00000000E+00  0.00000000E+00
                       2.15116279E-01  0.00000000E+00  0.00000000E+00
                       2.20930233E-01  0.00000000E+00  0.00000000E+00
                       2.26744186E-01  0.00000000E+00  0.00000000E+00
                       2.32558140E-01  0.00000000E+00  0.00000000E+00
                       2.38372093E-01  0.00000000E+00  0.00000000E+00
                       2.44186047E-01  0.00000000E+00  0.00000000E+00
                       2.50000000E-01  0.00000000E+00  0.00000000E+00
                       2.55813953E-01  0.00000000E+00  0.00000000E+00
                       2.61627907E-01  0.00000000E+00  0.00000000E+00
                       2.67441860E-01  0.00000000E+00  0.00000000E+00
                       2.73255814E-01  0.00000000E+00  0.00000000E+00
                       2.79069767E-01  0.00000000E+00  0.00000000E+00
                       2.84883721E-01  0.00000000E+00  0.00000000E+00
                       outvar_i_n : Printing only first  50 k-points.
           kptopt1          1
           kptopt2         -3
         kptrlatt        4    0    0      0    4    0      0    0    4
          kptrlen1     1.85577117E+01
          kptrlen2     3.00000000E+01
P           mkmem1          8
P           mkmem2        237
            natom           2
            nband1          5
            nband2          8
           nbdbuf1          0
           nbdbuf2          2
           ndtset           2
            ngfft          18      18      72
             nkpt1          8
             nkpt2        237
            nstep          10
             nsym          24
           ntypat           1
              occ      2.000000  2.000000  2.000000  2.000000  0.000000
            rprim      1.0000000000E+00  0.0000000000E+00  0.0000000000E+00
                      -5.0000000000E-01  8.6602540378E-01  0.0000000000E+00
                       0.0000000000E+00  0.0000000000E+00  1.0000000000E+00
           shiftk1     0.00000000E+00  0.00000000E+00  5.00000000E-01
           shiftk2     5.00000000E-01  5.00000000E-01  5.00000000E-01
          spgroup         191
           symrel      1  0  0   0  1  0   0  0  1      -1  0  0   0 -1  0   0  0 -1
                       0  1  0   1  0  0   0  0  1       0 -1  0  -1  0  0   0  0 -1
                       1  1  0  -1  0  0   0  0  1      -1 -1  0   1  0  0   0  0 -1
                      -1  0  0   1  1  0   0  0  1       1  0  0  -1 -1  0   0  0 -1
                       0  1  0  -1 -1  0   0  0  1       0 -1  0   1  1  0   0  0 -1
                      -1 -1  0   0  1  0   0  0  1       1  1  0   0 -1  0   0  0 -1
                      -1  0  0   0 -1  0   0  0  1       1  0  0   0  1  0   0  0 -1
                       0 -1  0  -1  0  0   0  0  1       0  1  0   1  0  0   0  0 -1
                      -1 -1  0   1  0  0   0  0  1       1  1  0  -1  0  0   0  0 -1
                       1  0  0  -1 -1  0   0  0  1      -1  0  0   1  1  0   0  0 -1
                       0 -1  0   1  1  0   0  0  1       0  1  0  -1 -1  0   0  0 -1
                       1  1  0   0 -1  0   0  0  1      -1 -1  0   0  1  0   0  0 -1
            tnons      0.0000000  0.0000000  0.0000000    -0.3333333  0.3333333  0.0000000
                      -0.3333333  0.3333333  0.0000000     0.0000000  0.0000000  0.0000000
                      -0.3333333  0.3333333  0.0000000     0.0000000  0.0000000  0.0000000
                       0.0000000  0.0000000  0.0000000    -0.3333333  0.3333333  0.0000000
                       0.0000000  0.0000000  0.0000000    -0.3333333  0.3333333  0.0000000
                      -0.3333333  0.3333333  0.0000000     0.0000000  0.0000000  0.0000000
                      -0.3333333  0.3333333  0.0000000     0.0000000  0.0000000  0.0000000
                       0.0000000  0.0000000  0.0000000    -0.3333333  0.3333333  0.0000000
                       0.0000000  0.0000000  0.0000000    -0.3333333  0.3333333  0.0000000
                      -0.3333333  0.3333333  0.0000000     0.0000000  0.0000000  0.0000000
                      -0.3333333  0.3333333  0.0000000     0.0000000  0.0000000  0.0000000
                       0.0000000  0.0000000  0.0000000    -0.3333333  0.3333333  0.0000000
           toldfe1     1.00000000E-06 Hartree
           toldfe2     0.00000000E+00 Hartree
           tolwfr1     0.00000000E+00
           tolwfr2     1.00000000E-12
            typat      1  1
              wtk1       0.03125    0.18750    0.09375    0.18750    0.03125    0.18750
                         0.09375    0.18750
              wtk2       1.00000    1.00000    1.00000    1.00000    1.00000    1.00000
                         1.00000    1.00000    1.00000    1.00000    1.00000    1.00000
                         1.00000    1.00000    1.00000    1.00000    1.00000    1.00000
                         1.00000    1.00000    1.00000    1.00000    1.00000    1.00000
                         1.00000    1.00000    1.00000    1.00000    1.00000    1.00000
                         1.00000    1.00000    1.00000    1.00000    1.00000    1.00000
                         1.00000    1.00000    1.00000    1.00000    1.00000    1.00000
                         1.00000    1.00000    1.00000    1.00000    1.00000    1.00000
                         1.00000    1.00000
                       outvars : Printing only first  50 k-points.
           xangst      0.0000000000E+00  0.0000000000E+00  0.0000000000E+00
                       1.2275397621E+00  7.0872041210E-01  0.0000000000E+00
            xcart      0.0000000000E+00  0.0000000000E+00  0.0000000000E+00
                       2.3197139676E+00  1.3392874837E+00  0.0000000000E+00
             xred      0.0000000000E+00  0.0000000000E+00  0.0000000000E+00
                       6.6666666667E-01  3.3333333333E-01  0.0000000000E+00
            znucl        6.00000

================================================================================

 chkinp: Checking input parameters for consistency, jdtset=   1.

 chkinp: Checking input parameters for consistency, jdtset=   2.

================================================================================
== DATASET  1 ==================================================================
-   nproc =    1

 Exchange-correlation functional for the present dataset will be:
  LDA: new Teter (4/93) with spin-polarized option - ixc=1
 Citation for XC functional:
  S. Goedecker, M. Teter, J. Huetter, PRB 54, 1703 (1996)

 Real(R)+Recip(G) space primitive vectors, cartesian coordinates (Bohr,Bohr^-1):
 R(1)=  4.6394279  0.0000000  0.0000000  G(1)=  0.2155438  0.1244443  0.0000000
 R(2)= -2.3197140  4.0178625  0.0000000  G(2)=  0.0000000  0.2488886  0.0000000
 R(3)=  0.0000000  0.0000000 18.6012151  G(3)=  0.0000000  0.0000000  0.0537599
 Unit cell volume ucvol=  3.4673750E+02 bohr^3
 Angles (23,13,12)=  9.00000000E+01  9.00000000E+01  1.20000000E+02 degrees

 getcut: wavevector=  0.0000  0.0000  0.0000  ngfft=  18  18  72
         ecut(hartree)=     17.000   => boxcut(ratio)=   2.08546

--- Pseudopotential description ------------------------------------------------
- pspini: atom type   1  psp file is ./6c.pspnc
- pspatm: opening atomic psp file    ./6c.pspnc
-  Troullier-Martins psp for element  C         Thu Oct 27 17:29:33 EDT 1994
-  6.00000   4.00000    940714                znucl, zion, pspdat
    1    1    1    1      2001   0.00000      pspcod,pspxc,lmax,lloc,mmax,r2well
    0  10.372  24.987    1   1.4850707        l,e99.0,e99.9,nproj,rcpsp
   0.00000000   0.00000000   0.00000000   0.00000000     rms, ekb1, ekb2, epsatm
    1  15.431  21.987    0   1.4850707        l,e99.0,e99.9,nproj,rcpsp
   0.00000000   0.00000000   0.00000000   0.00000000     rms, ekb1, ekb2, epsatm
    0.83985002509544    0.99012430797080    0.51184907750884   rchrg,fchrg,qchrg
 pspatm: epsatm=    0.92590353
         --- l  ekb(1:nproj) -->
             0    4.921466
 pspatm: atomic psp has been read  and splines computed

   1.48144565E+01                                ecore*ucvol(ha*bohr**3)
--------------------------------------------------------------------------------

_setup2: Arith. and geom. avg. npw (full set) are    1161.844    1161.801

================================================================================

     iter   Etot(hartree)      deltaE(h)  residm     vres2
 ETOT  1  -12.013654124946    -1.201E+01 2.174E-01 5.537E+01
 ETOT  2  -12.036027699422    -2.237E-02 1.940E-05 4.270E+00
 ETOT  3  -12.036146073461    -1.184E-04 3.898E-06 1.464E+00
 ETOT  4  -12.036211328694    -6.526E-05 6.273E-06 4.397E-02
 ETOT  5  -12.036211587305    -2.586E-07 9.121E-07 5.697E-03
 ETOT  6  -12.036211618292    -3.099E-08 4.982E-08 1.042E-03

 At SCF step    6, etot is converged : 
  for the second time, diff in etot=  3.099E-08 < toldfe=  1.000E-06

 Cartesian components of stress tensor (hartree/bohr^3)
  sigma(1 1)=  4.03958638E-04  sigma(3 2)=  0.00000000E+00
  sigma(2 2)=  4.03958638E-04  sigma(3 1)=  0.00000000E+00
  sigma(3 3)=  3.56898886E-04  sigma(2 1)=  0.00000000E+00

 Integrated electronic density in atomic spheres:
 ------------------------------------------------
 Atom  Sphere_radius  Integrated_density
    1        2.00000          4.73992493
    2        2.00000          4.73992493
================================================================================

 ----iterations are completed or convergence reached----

 Mean square residual over all n,k,spin=   2.5526E-09; max=  4.9822E-08
 reduced coordinates (array xred) for    2 atoms
       0.000000000000      0.000000000000      0.000000000000
       0.666666666667      0.333333333333      0.000000000000
 rms dE/dt=  5.6052E-28; max dE/dt=  8.0779E-28; dE/dt below (all hartree)
    1       0.000000000000     -0.000000000000      0.000000000000
    2      -0.000000000000      0.000000000000      0.000000000000

 cartesian coordinates (angstrom) at end:
    1      0.00000000000000     0.00000000000000     0.00000000000000
    2      1.22753976212826     0.70872041210209     0.00000000000000

 cartesian forces (hartree/bohr) at end:
    1     -0.00000000000000     0.00000000000000    -0.00000000000000
    2      0.00000000000000    -0.00000000000000    -0.00000000000000
 frms,max,avg= 1.0236994E-28 1.3403372E-28   0.000E+00  0.000E+00  0.000E+00 h/b

 cartesian forces (eV/Angstrom) at end:
    1     -0.00000000000000     0.00000000000000    -0.00000000000000
    2      0.00000000000000    -0.00000000000000    -0.00000000000000
 frms,max,avg= 5.2640737E-27 6.8922903E-27   0.000E+00  0.000E+00  0.000E+00 e/A
 length scales=  4.639427935300  4.639427935300 18.601215051000 bohr
              =  2.455079524257  2.455079524257  9.843339057070 angstroms
 prteigrs : about to open file graphene_xo_DS1_EIG
 Fermi (or HOMO) energy (hartree) =  -0.11300   Average Vxc (hartree)=  -0.16664
 Eigenvalues (hartree) for nkpt=   8  k points:
 kpt#   1, nband=  5, wtk=  0.03125, kpt=  0.0000  0.0000  0.1250 (reduced coord)
  -0.74408   -0.31089   -0.13584   -0.13584    0.09144
 prteigrs : prtvol=0 or 1, do not print more k-points.


--------------------------------------------------------------------------------
 Components of total free energy (in Hartree) :

    Kinetic energy  =  8.17941356453468E+00
    Hartree energy  =  2.31873899072499E+01
    XC energy       = -4.27357780319772E+00
    Ewald energy    =  1.35900591862076E+01
    PspCore energy  =  4.27252793134098E-02
    Loc. psp. energy= -5.41264893183273E+01
    NL   psp  energy=  1.36426756592779E+00
    >>>>>>>>> Etotal= -1.20362116182916E+01

 Other information on the energy :
    Total energy(eV)= -3.27521974565524E+02 ; Band energy (Ha)=  -2.8949240789E+00
--------------------------------------------------------------------------------

 Cartesian components of stress tensor (hartree/bohr^3)
  sigma(1 1)=  4.03958638E-04  sigma(3 2)=  0.00000000E+00
  sigma(2 2)=  4.03958638E-04  sigma(3 1)=  0.00000000E+00
  sigma(3 3)=  3.56898886E-04  sigma(2 1)=  0.00000000E+00

-Cartesian components of stress tensor (GPa)         [Pressure= -1.1423E+01 GPa]
- sigma(1 1)=  1.18848715E+01  sigma(3 2)=  0.00000000E+00
- sigma(2 2)=  1.18848715E+01  sigma(3 1)=  0.00000000E+00
- sigma(3 3)=  1.05003260E+01  sigma(2 1)=  0.00000000E+00

================================================================================
== DATASET  2 ==================================================================
-   nproc =    1

 mkfilename : getden/=0, take file _DEN from output of DATASET   1.

 Exchange-correlation functional for the present dataset will be:
  LDA: new Teter (4/93) with spin-polarized option - ixc=1
 Citation for XC functional:
  S. Goedecker, M. Teter, J. Huetter, PRB 54, 1703 (1996)

 Real(R)+Recip(G) space primitive vectors, cartesian coordinates (Bohr,Bohr^-1):
 R(1)=  4.6394279  0.0000000  0.0000000  G(1)=  0.2155438  0.1244443  0.0000000
 R(2)= -2.3197140  4.0178625  0.0000000  G(2)=  0.0000000  0.2488886  0.0000000
 R(3)=  0.0000000  0.0000000 18.6012151  G(3)=  0.0000000  0.0000000  0.0537599
 Unit cell volume ucvol=  3.4673750E+02 bohr^3
 Angles (23,13,12)=  9.00000000E+01  9.00000000E+01  1.20000000E+02 degrees

 getcut: wavevector=  0.0000  0.0000  0.0000  ngfft=  18  18  72
         ecut(hartree)=     17.000   => boxcut(ratio)=   2.08546
--------------------------------------------------------------------------------


================================================================================
 prteigrs : about to open file graphene_xo_DS2_EIG
 Non-SCF case, kpt    1 (  0.00000  0.00000  0.00000), residuals and eigenvalues=
  7.07E-13  5.89E-13  3.54E-13  6.28E-13  9.66E-13  8.62E-13  5.84E-12  3.26E-11
 -7.4443E-01 -3.1120E-01 -1.3621E-01 -1.3621E-01  9.0320E-02  1.5439E-01
  1.9528E-01  2.8379E-01
  prteigrs : nnsclo,ikpt=   10    1 max resid (incl. the buffer)=  3.25925E-11
 Non-SCF case, kpt    2 (  0.00581  0.00000  0.00000), residuals and eigenvalues=
  9.52E-13  2.46E-13  6.73E-13  6.22E-13  5.17E-13  3.81E-13  8.31E-13  2.56E-08
 -7.4440E-01 -3.1117E-01 -1.3633E-01 -1.3627E-01  9.0360E-02  1.5443E-01
  1.9532E-01  2.8389E-01
  prteigrs : nnsclo,ikpt=   10    2 max resid (incl. the buffer)=  2.56417E-08
 Non-SCF case, kpt    3 (  0.01163  0.00000  0.00000), residuals and eigenvalues=
  9.53E-13  2.40E-13  8.47E-13  6.79E-13  5.02E-13  4.05E-13  3.95E-13  2.56E-07
 -7.4431E-01 -3.1106E-01 -1.3669E-01 -1.3647E-01  9.0481E-02  1.5455E-01
  1.9544E-01  2.8419E-01
  prteigrs : nnsclo,ikpt=   10    3 max resid (incl. the buffer)=  2.56290E-07
 Non-SCF case, kpt    4 (  0.01744  0.00000  0.00000), residuals and eigenvalues=
  9.39E-13  2.36E-13  3.48E-13  7.07E-13  4.82E-13  4.22E-13  5.07E-13  1.70E-06
 -7.4416E-01 -3.1088E-01 -1.3730E-01 -1.3680E-01  9.0681E-02  1.5475E-01
  1.9564E-01  2.8466E-01
  prteigrs : nnsclo,ikpt=   10    4 max resid (incl. the buffer)=  1.69662E-06
 Non-SCF case, kpt    5 (  0.02326  0.00000  0.00000), residuals and eigenvalues=
  8.28E-13  4.87E-13  3.91E-13  5.27E-13  7.18E-13  9.85E-13  1.36E-10  2.37E-06
 -7.4395E-01 -3.1063E-01 -1.3773E-01 -1.3723E-01  9.0962E-02  1.5502E-01
  1.9592E-01  2.8440E-01
  prteigrs : nnsclo,ikpt=   10    5 max resid (incl. the buffer)=  2.37442E-06
 Non-SCF case, kpt    6 (  0.02907  0.00000  0.00000), residuals and eigenvalues=
  8.83E-13  4.58E-13  2.53E-13  6.15E-13  8.38E-13  3.24E-13  1.29E-11  6.67E-06
 -7.4369E-01 -3.1031E-01 -1.3882E-01 -1.3782E-01  9.1323E-02  1.5538E-01
  1.9627E-01  2.8459E-01
  prteigrs : nnsclo,ikpt=   10    6 max resid (incl. the buffer)=  6.67117E-06
 Non-SCF case, kpt    7 (  0.03488  0.00000  0.00000), residuals and eigenvalues=
  6.68E-13  3.39E-13  4.51E-13  7.56E-13  2.69E-13  5.39E-13  5.53E-13  1.55E-05
 -7.4336E-01 -3.0991E-01 -1.3993E-01 -1.3832E-01  9.1764E-02  1.5582E-01
  1.9671E-01  2.8498E-01
  prteigrs : nnsclo,ikpt=   10    7 max resid (incl. the buffer)=  1.55145E-05
 Non-SCF case, kpt    8 (  0.04070  0.00000  0.00000), residuals and eigenvalues=
  4.32E-13  5.52E-13  8.75E-13  8.19E-13  9.17E-13  8.75E-13  6.23E-12  1.25E-06
 -7.4297E-01 -3.0932E-01 -1.4158E-01 -1.3917E-01  9.2285E-02  1.5636E-01
  1.9723E-01  2.8547E-01
  prteigrs : nnsclo,ikpt=   10    8 max resid (incl. the buffer)=  1.24823E-06
 Non-SCF case, kpt    9 (  0.04651  0.00000  0.00000), residuals and eigenvalues=
  5.07E-13  8.86E-13  5.03E-13  4.61E-13  6.06E-13  2.49E-13  1.28E-12  4.16E-05
 -7.4253E-01 -3.0875E-01 -1.4320E-01 -1.4001E-01  9.2887E-02  1.5696E-01
  1.9782E-01  2.8704E-01
  prteigrs : nnsclo,ikpt=   10    9 max resid (incl. the buffer)=  4.16352E-05
 Non-SCF case, kpt   10 (  0.05233  0.00000  0.00000), residuals and eigenvalues=
  4.22E-13  8.83E-13  3.45E-13  3.50E-13  9.44E-13  8.10E-13  1.98E-12  9.11E-05
 -7.4202E-01 -3.0815E-01 -1.4521E-01 -1.4108E-01  9.3568E-02  1.5764E-01
  1.9850E-01  2.8737E-01
  prteigrs : nnsclo,ikpt=   10   10 max resid (incl. the buffer)=  9.10875E-05
 Non-SCF case, kpt   11 (  0.05814  0.00000  0.00000), residuals and eigenvalues=
  4.85E-13  4.96E-13  4.16E-13  7.84E-13  3.73E-13  7.33E-13  6.72E-12  1.11E-06
 -7.4146E-01 -3.0748E-01 -1.4767E-01 -1.4245E-01  9.4330E-02  1.5839E-01
  1.9925E-01  2.8609E-01
  prteigrs : nnsclo,ikpt=   10   11 max resid (incl. the buffer)=  1.11336E-06
 Non-SCF case, kpt   12 (  0.06395  0.00000  0.00000), residuals and eigenvalues=
  4.95E-13  5.03E-13  9.64E-13  6.71E-13  4.05E-13  6.26E-13  6.58E-12  9.31E-07
 -7.4084E-01 -3.0673E-01 -1.5010E-01 -1.4374E-01  9.5172E-02  1.5923E-01
  2.0008E-01  2.8632E-01
  prteigrs : nnsclo,ikpt=   10   12 max resid (incl. the buffer)=  9.31042E-07
 Non-SCF case, kpt   13 (  0.06977  0.00000  0.00000), residuals and eigenvalues=
  9.22E-13  4.34E-13  9.22E-13  2.31E-13  3.66E-13  9.80E-13  5.42E-12  8.66E-06
 -7.4017E-01 -3.0595E-01 -1.5232E-01 -1.4513E-01  9.6093E-02  1.6013E-01
  2.0099E-01  2.8623E-01
  prteigrs : nnsclo,ikpt=   10   13 max resid (incl. the buffer)=  8.66315E-06
 Non-SCF case, kpt   14 (  0.07558  0.00000  0.00000), residuals and eigenvalues=
  3.72E-13  3.22E-13  3.91E-13  3.65E-13  7.58E-13  2.12E-13  6.69E-13  1.61E-05
 -7.3942E-01 -3.0506E-01 -1.5514E-01 -1.4616E-01  9.7095E-02  1.6113E-01
  2.0199E-01  2.8648E-01
  prteigrs : nnsclo,ikpt=   10   14 max resid (incl. the buffer)=  1.61486E-05
 Non-SCF case, kpt   15 (  0.08140  0.00000  0.00000), residuals and eigenvalues=
  5.16E-13  2.43E-13  2.93E-13  7.96E-13  4.82E-13  2.10E-13  6.29E-13  1.47E-05
 -7.3862E-01 -3.0400E-01 -1.5816E-01 -1.4774E-01  9.8178E-02  1.6222E-01
  2.0306E-01  2.8683E-01
  prteigrs : nnsclo,ikpt=   10   15 max resid (incl. the buffer)=  1.46883E-05
 Non-SCF case, kpt   16 (  0.08721  0.00000  0.00000), residuals and eigenvalues=
  6.73E-13  2.69E-13  8.89E-13  6.98E-13  3.73E-13  9.70E-13  4.28E-13  9.29E-06
 -7.3776E-01 -3.0297E-01 -1.6137E-01 -1.4941E-01  9.9341E-02  1.6337E-01
  2.0421E-01  2.8693E-01
  prteigrs : nnsclo,ikpt=   10   16 max resid (incl. the buffer)=  9.29180E-06
 Non-SCF case, kpt   17 (  0.09302  0.00000  0.00000), residuals and eigenvalues=
  7.17E-13  2.68E-13  8.06E-13  5.36E-13  3.18E-13  8.40E-13  5.86E-13  5.26E-06
 -7.3684E-01 -3.0187E-01 -1.6475E-01 -1.5116E-01  1.0058E-01  1.6460E-01
  2.0544E-01  2.8703E-01
  prteigrs : nnsclo,ikpt=   10   17 max resid (incl. the buffer)=  5.26327E-06
 Non-SCF case, kpt   18 (  0.09884  0.00000  0.00000), residuals and eigenvalues=
  6.58E-13  7.28E-13  3.30E-13  2.53E-13  6.98E-13  4.39E-13  6.82E-13  3.98E-06
 -7.3587E-01 -3.0070E-01 -1.6813E-01 -1.5277E-01  1.0191E-01  1.6591E-01
  2.0675E-01  2.8725E-01
  prteigrs : nnsclo,ikpt=   10   18 max resid (incl. the buffer)=  3.97728E-06
 Non-SCF case, kpt   19 (  0.10465  0.00000  0.00000), residuals and eigenvalues=
  8.37E-13  3.53E-13  1.75E-13  8.42E-13  5.59E-13  2.99E-13  1.56E-12  3.20E-06
 -7.3483E-01 -2.9946E-01 -1.7142E-01 -1.5464E-01  1.0331E-01  1.6729E-01
  2.0814E-01  2.8733E-01
  prteigrs : nnsclo,ikpt=   10   19 max resid (incl. the buffer)=  3.20443E-06
 Non-SCF case, kpt   20 (  0.11047  0.00000  0.00000), residuals and eigenvalues=
  9.35E-13  3.83E-13  1.97E-13  8.14E-13  4.05E-13  2.47E-13  1.66E-12  1.57E-06
 -7.3373E-01 -2.9815E-01 -1.7530E-01 -1.5660E-01  1.0480E-01  1.6876E-01
  2.0961E-01  2.8736E-01
  prteigrs : nnsclo,ikpt=   10   20 max resid (incl. the buffer)=  1.57403E-06
 Non-SCF case, kpt   21 (  0.11628  0.00000  0.00000), residuals and eigenvalues=
  9.40E-13  4.16E-13  6.12E-13  6.92E-13  6.24E-13  3.45E-13  1.30E-12  2.89E-08
 -7.3259E-01 -2.9678E-01 -1.7955E-01 -1.5866E-01  1.0636E-01  1.7030E-01
  2.1116E-01  2.8724E-01
  prteigrs : nnsclo,ikpt=   10   21 max resid (incl. the buffer)=  2.89183E-08
 Non-SCF case, kpt   22 (  0.12209  0.00000  0.00000), residuals and eigenvalues=
  5.12E-13  6.73E-13  7.26E-13  5.80E-13  7.46E-13  6.44E-13  9.86E-13  2.48E-07
 -7.3137E-01 -2.9530E-01 -1.8329E-01 -1.6071E-01  1.0800E-01  1.7193E-01
  2.1278E-01  2.8755E-01
  prteigrs : nnsclo,ikpt=   10   22 max resid (incl. the buffer)=  2.47855E-07
 Non-SCF case, kpt   23 (  0.12791  0.00000  0.00000), residuals and eigenvalues=
  5.49E-13  6.09E-13  9.89E-13  6.00E-13  8.67E-13  9.39E-13  1.03E-12  6.91E-09
 -7.3011E-01 -2.9384E-01 -1.8741E-01 -1.6282E-01  1.0973E-01  1.7362E-01
  2.1449E-01  2.8733E-01
  prteigrs : nnsclo,ikpt=   10   23 max resid (incl. the buffer)=  6.91043E-09
 Non-SCF case, kpt   24 (  0.13372  0.00000  0.00000), residuals and eigenvalues=
  5.91E-13  2.45E-13  9.39E-13  8.23E-13  8.62E-13  2.72E-13  2.44E-12  5.59E-08
 -7.2878E-01 -2.9198E-01 -1.9182E-01 -1.6498E-01  1.1154E-01  1.7545E-01
  2.1628E-01  2.8728E-01
  prteigrs : nnsclo,ikpt=   10   24 max resid (incl. the buffer)=  5.58645E-08
 Non-SCF case, kpt   25 (  0.13953  0.00000  0.00000), residuals and eigenvalues=
  8.76E-13  4.73E-13  1.80E-13  4.52E-13  7.26E-13  4.18E-13  1.81E-12  1.61E-07
 -7.2739E-01 -2.9033E-01 -1.9621E-01 -1.6697E-01  1.1342E-01  1.7731E-01
  2.1814E-01  2.8721E-01
  prteigrs : nnsclo,ikpt=   10   25 max resid (incl. the buffer)=  1.60950E-07
 Non-SCF case, kpt   26 (  0.14535  0.00000  0.00000), residuals and eigenvalues=
  7.39E-13  4.00E-13  2.61E-13  4.84E-13  4.12E-13  3.05E-13  1.61E-11  2.26E-06
 -7.2594E-01 -2.8861E-01 -2.0086E-01 -1.6947E-01  1.1539E-01  1.7924E-01
  2.2009E-01  2.8696E-01
  prteigrs : nnsclo,ikpt=   10   26 max resid (incl. the buffer)=  2.25965E-06
 Non-SCF case, kpt   27 (  0.15116  0.00000  0.00000), residuals and eigenvalues=
  8.74E-13  3.42E-13  2.57E-13  4.95E-13  5.51E-13  4.72E-13  3.18E-11  3.80E-06
 -7.2443E-01 -2.8682E-01 -2.0561E-01 -1.7173E-01  1.1743E-01  1.8125E-01
  2.2211E-01  2.8666E-01
  prteigrs : nnsclo,ikpt=   10   27 max resid (incl. the buffer)=  3.79863E-06
 Non-SCF case, kpt   28 (  0.15698  0.00000  0.00000), residuals and eigenvalues=
  9.20E-13  8.38E-13  3.57E-13  4.03E-13  6.02E-13  9.02E-13  1.66E-11  2.74E-07
 -7.2287E-01 -2.8498E-01 -2.1048E-01 -1.7402E-01  1.1956E-01  1.8333E-01
  2.2421E-01  2.8631E-01
  prteigrs : nnsclo,ikpt=   10   28 max resid (incl. the buffer)=  2.73628E-07
 Non-SCF case, kpt   29 (  0.16279  0.00000  0.00000), residuals and eigenvalues=
  7.43E-13  7.50E-13  5.11E-13  4.31E-13  8.09E-13  8.62E-13  3.06E-11  5.48E-07
 -7.2125E-01 -2.8302E-01 -2.1556E-01 -1.7629E-01  1.2176E-01  1.8550E-01
  2.2638E-01  2.8593E-01
  prteigrs : nnsclo,ikpt=   10   29 max resid (incl. the buffer)=  5.48141E-07
 Non-SCF case, kpt   30 (  0.16860  0.00000  0.00000), residuals and eigenvalues=
  5.42E-13  2.49E-13  3.67E-13  3.66E-13  4.37E-13  6.46E-13  1.81E-11  3.98E-07
 -7.1957E-01 -2.8103E-01 -2.2045E-01 -1.7840E-01  1.2405E-01  1.8774E-01
  2.2864E-01  2.8561E-01
  prteigrs : nnsclo,ikpt=   10   30 max resid (incl. the buffer)=  3.98382E-07
 Non-SCF case, kpt   31 (  0.17442  0.00000  0.00000), residuals and eigenvalues=
  8.94E-13  8.74E-13  3.92E-13  3.96E-13  4.27E-13  4.79E-13  7.18E-12  2.31E-07
 -7.1783E-01 -2.7896E-01 -2.2554E-01 -1.8074E-01  1.2641E-01  1.9006E-01
  2.3097E-01  2.8515E-01
  prteigrs : nnsclo,ikpt=   10   31 max resid (incl. the buffer)=  2.31460E-07
 Non-SCF case, kpt   32 (  0.18023  0.00000  0.00000), residuals and eigenvalues=
  6.34E-13  8.64E-13  7.48E-13  2.11E-13  2.46E-13  2.05E-12  2.67E-11  2.18E-06
 -7.1603E-01 -2.7683E-01 -2.3065E-01 -1.8298E-01  1.2886E-01  1.9245E-01
  2.3337E-01  2.8471E-01
  prteigrs : nnsclo,ikpt=   10   32 max resid (incl. the buffer)=  2.18173E-06
 Non-SCF case, kpt   33 (  0.18605  0.00000  0.00000), residuals and eigenvalues=
  9.15E-13  5.95E-13  2.31E-13  5.74E-13  2.32E-13  4.15E-12  1.33E-10  6.16E-08
 -7.1417E-01 -2.7456E-01 -2.3579E-01 -1.8533E-01  1.3138E-01  1.9492E-01
  2.3586E-01  2.8430E-01
  prteigrs : nnsclo,ikpt=   10   33 max resid (incl. the buffer)=  6.16026E-08
 Non-SCF case, kpt   34 (  0.19186  0.00000  0.00000), residuals and eigenvalues=
  4.75E-13  3.42E-13  3.68E-13  3.17E-13  5.05E-13  2.66E-12  9.28E-10  2.19E-06
 -7.1229E-01 -2.7233E-01 -2.4111E-01 -1.8771E-01  1.3398E-01  1.9745E-01
  2.3841E-01  2.8385E-01
  prteigrs : nnsclo,ikpt=   10   34 max resid (incl. the buffer)=  2.18909E-06
 Non-SCF case, kpt   35 (  0.19767  0.00000  0.00000), residuals and eigenvalues=
  4.27E-13  3.44E-13  3.62E-13  3.35E-13  6.68E-13  5.07E-12  2.63E-09  3.17E-06
 -7.1032E-01 -2.7000E-01 -2.4646E-01 -1.9006E-01  1.3667E-01  2.0005E-01
  2.4103E-01  2.8327E-01
  prteigrs : nnsclo,ikpt=   10   35 max resid (incl. the buffer)=  3.16729E-06
 Non-SCF case, kpt   36 (  0.20349  0.00000  0.00000), residuals and eigenvalues=
  9.20E-13  3.33E-13  3.50E-13  3.46E-13  7.94E-13  1.02E-11  7.69E-09  3.52E-06
 -7.0829E-01 -2.6761E-01 -2.5186E-01 -1.9239E-01  1.3943E-01  2.0272E-01
  2.4372E-01  2.8268E-01
  prteigrs : nnsclo,ikpt=   10   36 max resid (incl. the buffer)=  3.52337E-06
 Non-SCF case, kpt   37 (  0.20930  0.00000  0.00000), residuals and eigenvalues=
  6.66E-13  6.27E-13  7.40E-13  3.45E-13  3.24E-13  9.44E-13  6.43E-09  4.53E-06
 -7.0622E-01 -2.6521E-01 -2.5762E-01 -1.9478E-01  1.4227E-01  2.0544E-01
  2.4647E-01  2.8204E-01
  prteigrs : nnsclo,ikpt=   10   37 max resid (incl. the buffer)=  4.53342E-06
 Non-SCF case, kpt   38 (  0.21512  0.00000  0.00000), residuals and eigenvalues=
  6.53E-13  8.31E-13  6.40E-13  3.20E-13  2.89E-13  2.06E-12  1.64E-08  4.39E-07
 -7.0408E-01 -2.6311E-01 -2.6269E-01 -1.9709E-01  1.4520E-01  2.0822E-01
  2.4929E-01  2.8117E-01
  prteigrs : nnsclo,ikpt=   10   38 max resid (incl. the buffer)=  4.38899E-07
 Non-SCF case, kpt   39 (  0.22093  0.00000  0.00000), residuals and eigenvalues=
  7.88E-13  5.38E-13  2.26E-13  5.71E-13  3.24E-13  1.40E-09  9.97E-09  6.25E-06
 -7.0188E-01 -2.6862E-01 -2.6010E-01 -1.9893E-01  1.4820E-01  2.1106E-01
  2.5216E-01  2.8041E-01
  prteigrs : nnsclo,ikpt=   10   39 max resid (incl. the buffer)=  6.24984E-06
 Non-SCF case, kpt   40 (  0.22674  0.00000  0.00000), residuals and eigenvalues=
  9.52E-13  5.27E-13  2.29E-13  6.06E-13  4.59E-13  4.42E-09  6.25E-08  6.72E-05
 -6.9962E-01 -2.7418E-01 -2.5745E-01 -2.0122E-01  1.5128E-01  2.1392E-01
  2.5506E-01  2.7839E-01
  prteigrs : nnsclo,ikpt=   10   40 max resid (incl. the buffer)=  6.72250E-05
 Non-SCF case, kpt   41 (  0.23256  0.00000  0.00000), residuals and eigenvalues=
  5.19E-13  5.46E-13  2.27E-13  6.24E-13  5.02E-13  1.18E-08  8.86E-08  3.15E-04
 -6.9731E-01 -2.7977E-01 -2.5474E-01 -2.0348E-01  1.5444E-01  2.1680E-01
  2.5798E-01  2.7515E-01
  prteigrs : nnsclo,ikpt=   10   41 max resid (incl. the buffer)=  3.14939E-04
 Non-SCF case, kpt   42 (  0.23837  0.00000  0.00000), residuals and eigenvalues=
  5.60E-13  2.75E-13  3.51E-13  8.96E-13  3.37E-13  5.56E-12  2.96E-05  7.88E-07
 -6.9493E-01 -2.8535E-01 -2.5196E-01 -2.0572E-01  1.5768E-01  2.1963E-01
  2.5844E-01  2.6090E-01
  prteigrs : nnsclo,ikpt=   10   42 max resid (incl. the buffer)=  2.95597E-05
 Non-SCF case, kpt   43 (  0.24419  0.00000  0.00000), residuals and eigenvalues=
  6.51E-13  5.17E-13  4.18E-13  2.15E-13  3.63E-13  2.69E-12  3.71E-06  3.48E-08
 -6.9250E-01 -2.9089E-01 -2.4909E-01 -2.0792E-01  1.6100E-01  2.2231E-01
  2.5326E-01  2.6373E-01
  prteigrs : nnsclo,ikpt=   10   43 max resid (incl. the buffer)=  3.70745E-06
 Non-SCF case, kpt   44 (  0.25000  0.00000  0.00000), residuals and eigenvalues=
  5.70E-13  8.78E-13  3.72E-13  3.06E-13  8.52E-13  1.89E-13  1.15E-08  6.63E-07
 -6.9002E-01 -2.9655E-01 -2.4619E-01 -2.1011E-01  1.6440E-01  2.2462E-01
  2.4836E-01  2.6630E-01
  prteigrs : nnsclo,ikpt=   10   44 max resid (incl. the buffer)=  6.62675E-07
 Non-SCF case, kpt   45 (  0.25581  0.00000  0.00000), residuals and eigenvalues=
  7.18E-13  8.20E-13  9.48E-13  2.84E-13  7.11E-13  1.01E-12  1.43E-09  2.98E-06
 -6.8748E-01 -3.0223E-01 -2.4324E-01 -2.1227E-01  1.6788E-01  2.2599E-01
  2.4447E-01  2.6841E-01
  prteigrs : nnsclo,ikpt=   10   45 max resid (incl. the buffer)=  2.98230E-06
 Non-SCF case, kpt   46 (  0.26163  0.00000  0.00000), residuals and eigenvalues=
  6.94E-13  7.28E-13  7.73E-13  2.51E-13  4.93E-13  6.68E-12  5.66E-11  1.75E-05
 -6.8488E-01 -3.0793E-01 -2.4023E-01 -2.1440E-01  1.7143E-01  2.2537E-01
  2.4260E-01  2.6981E-01
  prteigrs : nnsclo,ikpt=   10   46 max resid (incl. the buffer)=  1.74950E-05
 Non-SCF case, kpt   47 (  0.26744  0.00000  0.00000), residuals and eigenvalues=
  5.90E-13  2.00E-13  5.94E-13  2.59E-13  5.34E-13  1.52E-10  2.40E-12  5.04E-07
 -6.8223E-01 -3.1366E-01 -2.3720E-01 -2.1666E-01  1.7507E-01  2.2214E-01
  2.4305E-01  2.7024E-01
  prteigrs : nnsclo,ikpt=   10   47 max resid (incl. the buffer)=  5.04309E-07
 Non-SCF case, kpt   48 (  0.27326  0.00000  0.00000), residuals and eigenvalues=
  5.45E-13  6.44E-13  2.89E-13  6.29E-13  4.34E-13  9.17E-11  3.70E-12  8.29E-06
 -6.7954E-01 -3.1947E-01 -2.3420E-01 -2.1879E-01  1.7878E-01  2.1752E-01
  2.4526E-01  2.7023E-01
  prteigrs : nnsclo,ikpt=   10   48 max resid (incl. the buffer)=  8.29245E-06
 Non-SCF case, kpt   49 (  0.27907  0.00000  0.00000), residuals and eigenvalues=
  7.39E-13  3.91E-13  4.67E-13  2.32E-13  6.35E-13  2.13E-11  3.08E-13  1.02E-06
 -6.7678E-01 -3.2534E-01 -2.3101E-01 -2.2082E-01  1.8257E-01  2.1221E-01
  2.4824E-01  2.7000E-01
  prteigrs : nnsclo,ikpt=   10   49 max resid (incl. the buffer)=  1.02386E-06
 Non-SCF case, kpt   50 (  0.28488  0.00000  0.00000), residuals and eigenvalues=
  8.91E-13  2.19E-13  5.02E-13  4.76E-13  3.13E-13  4.94E-13  2.80E-13  2.59E-07
 -6.7396E-01 -3.3106E-01 -2.2778E-01 -2.2281E-01  1.8644E-01  2.0658E-01
  2.5159E-01  2.6949E-01
  prteigrs : nnsclo,ikpt=   10   50 max resid (incl. the buffer)=  2.59460E-07
 Non-SCF case, kpt   51 (  0.29070  0.00000  0.00000), residuals and eigenvalues=
  5.10E-13  3.97E-13  7.06E-13  4.07E-13  7.28E-13  6.26E-13  7.15E-13  1.18E-08
 -6.7108E-01 -3.3677E-01 -2.2477E-01 -2.2450E-01  1.9038E-01  2.0078E-01
  2.5518E-01  2.6888E-01
  prteigrs : nnsclo,ikpt=   10   51 max resid (incl. the buffer)=  1.17635E-08
 Non-SCF case, kpt   52 (  0.29651  0.00000  0.00000), residuals and eigenvalues=
  8.44E-13  2.76E-13  6.27E-13  3.40E-13  2.84E-13  6.90E-13  8.05E-13  8.20E-10
 -6.6816E-01 -3.4257E-01 -2.2671E-01 -2.2113E-01  1.9441E-01  1.9490E-01
  2.5893E-01  2.6835E-01
  prteigrs : nnsclo,ikpt=   10   52 max resid (incl. the buffer)=  8.19755E-10
 Non-SCF case, kpt   53 (  0.30233  0.00000  0.00000), residuals and eigenvalues=
  4.54E-13  3.43E-13  1.96E-13  2.31E-13  4.20E-13  4.93E-13  5.49E-13  2.85E-10
 -6.6517E-01 -3.4827E-01 -2.2858E-01 -2.1774E-01  1.8894E-01  1.9851E-01
  2.6281E-01  2.6773E-01
  prteigrs : nnsclo,ikpt=   10   53 max resid (incl. the buffer)=  2.85176E-10
 Non-SCF case, kpt   54 (  0.30814  0.00000  0.00000), residuals and eigenvalues=
  4.81E-13  6.41E-13  3.52E-13  3.37E-13  7.02E-13  2.96E-13  5.17E-13  3.60E-10
 -6.6212E-01 -3.5395E-01 -2.3041E-01 -2.1426E-01  1.8294E-01  2.0269E-01
  2.6681E-01  2.6710E-01
  prteigrs : nnsclo,ikpt=   10   54 max resid (incl. the buffer)=  3.59980E-10
 Non-SCF case, kpt   55 (  0.31395  0.00000  0.00000), residuals and eigenvalues=
  3.38E-13  3.66E-13  4.07E-13  4.99E-13  3.47E-13  8.34E-13  1.49E-09  3.86E-13
 -6.5905E-01 -3.5970E-01 -2.3176E-01 -2.1078E-01  1.7681E-01  2.0693E-01
  2.6636E-01  2.7089E-01
  prteigrs : nnsclo,ikpt=   10   55 max resid (incl. the buffer)=  1.48722E-09
 Non-SCF case, kpt   56 (  0.31977  0.00000  0.00000), residuals and eigenvalues=
  5.20E-13  2.57E-13  2.08E-13  3.90E-13  9.66E-13  4.55E-13  7.61E-10  2.97E-13
 -6.5593E-01 -3.6540E-01 -2.3351E-01 -2.0733E-01  1.7078E-01  2.1125E-01
  2.6561E-01  2.7506E-01
  prteigrs : nnsclo,ikpt=   10   56 max resid (incl. the buffer)=  7.60837E-10
 Non-SCF case, kpt   57 (  0.32558  0.00000  0.00000), residuals and eigenvalues=
  3.69E-13  3.03E-13  1.71E-13  4.29E-13  7.37E-13  8.57E-13  2.86E-11  2.84E-13
 -6.5274E-01 -3.7107E-01 -2.3520E-01 -2.0376E-01  1.6476E-01  2.1565E-01
  2.6490E-01  2.7933E-01
  prteigrs : nnsclo,ikpt=   10   57 max resid (incl. the buffer)=  2.85705E-11
 Non-SCF case, kpt   58 (  0.33140  0.00000  0.00000), residuals and eigenvalues=
  4.82E-13  8.80E-13  9.07E-13  4.66E-13  1.75E-13  2.43E-13  5.90E-10  7.83E-13
 -6.4955E-01 -3.7690E-01 -2.3676E-01 -2.0018E-01  1.5895E-01  2.2010E-01
  2.6413E-01  2.8371E-01
  prteigrs : nnsclo,ikpt=   10   58 max resid (incl. the buffer)=  5.90402E-10
 Non-SCF case, kpt   59 (  0.33721  0.00000  0.00000), residuals and eigenvalues=
  9.04E-13  5.44E-13  7.04E-13  6.63E-13  4.30E-13  5.60E-13  1.37E-10  6.37E-13
 -6.4625E-01 -3.8251E-01 -2.3833E-01 -1.9643E-01  1.5296E-01  2.2463E-01
  2.6349E-01  2.8815E-01
  prteigrs : nnsclo,ikpt=   10   59 max resid (incl. the buffer)=  1.36979E-10
 Non-SCF case, kpt   60 (  0.34302  0.00000  0.00000), residuals and eigenvalues=
  7.03E-13  6.44E-13  5.83E-13  6.23E-13  8.28E-13  2.92E-13  3.54E-11  1.75E-13
 -6.4290E-01 -3.8813E-01 -2.3988E-01 -1.9276E-01  1.4698E-01  2.2922E-01
  2.6284E-01  2.9266E-01
  prteigrs : nnsclo,ikpt=   10   60 max resid (incl. the buffer)=  3.54129E-11
 Non-SCF case, kpt   61 (  0.34884  0.00000  0.00000), residuals and eigenvalues=
  5.73E-13  6.66E-13  4.14E-13  4.43E-13  3.31E-13  8.79E-13  1.10E-11  2.39E-13
 -6.3950E-01 -3.9372E-01 -2.4138E-01 -1.8905E-01  1.4104E-01  2.3387E-01
  2.6224E-01  2.9725E-01
  prteigrs : nnsclo,ikpt=   10   61 max resid (incl. the buffer)=  1.09730E-11
 Non-SCF case, kpt   62 (  0.35465  0.00000  0.00000), residuals and eigenvalues=
  9.78E-13  4.81E-13  3.55E-13  3.40E-13  2.26E-13  9.04E-13  3.91E-13  4.08E-13
 -6.3605E-01 -3.9930E-01 -2.4284E-01 -1.8539E-01  1.3491E-01  2.3854E-01
  2.6170E-01  3.0190E-01
 Non-SCF case, kpt   63 (  0.36047  0.00000  0.00000), residuals and eigenvalues=
  7.87E-13  5.10E-13  3.12E-13  3.03E-13  2.76E-13  3.58E-13  3.40E-13  4.87E-13
 -6.3255E-01 -4.0484E-01 -2.4423E-01 -1.8164E-01  1.2905E-01  2.4320E-01
  2.6126E-01  3.0663E-01
 Non-SCF case, kpt   64 (  0.36628  0.00000  0.00000), residuals and eigenvalues=
  7.94E-13  8.49E-13  3.14E-13  4.35E-13  3.42E-13  7.45E-13  4.03E-11  6.27E-13
 -6.2900E-01 -4.1035E-01 -2.4517E-01 -1.7797E-01  1.2292E-01  2.4775E-01
  2.6104E-01  3.1143E-01
  prteigrs : nnsclo,ikpt=   10   64 max resid (incl. the buffer)=  4.03436E-11
 Non-SCF case, kpt   65 (  0.37209  0.00000  0.00000), residuals and eigenvalues=
  6.98E-13  1.55E-13  2.90E-13  4.40E-13  9.20E-13  9.52E-13  2.89E-13  4.54E-13
 -6.2541E-01 -4.1584E-01 -2.4647E-01 -1.7419E-01  1.1718E-01  2.5189E-01
  2.6133E-01  3.1631E-01
 Non-SCF case, kpt   66 (  0.37791  0.00000  0.00000), residuals and eigenvalues=
  8.49E-13  9.47E-13  7.52E-13  3.17E-13  3.94E-13  8.08E-13  7.61E-13  9.09E-13
 -6.2177E-01 -4.2144E-01 -2.4771E-01 -1.7042E-01  1.1149E-01  2.5479E-01
  2.6292E-01  3.2125E-01
 Non-SCF case, kpt   67 (  0.38372  0.00000  0.00000), residuals and eigenvalues=
  5.10E-13  4.36E-13  8.75E-13  5.55E-13  1.38E-13  1.48E-13  2.86E-13  1.21E-12
 -6.1808E-01 -4.2686E-01 -2.4868E-01 -1.6664E-01  1.0590E-01  2.5594E-01
  2.6639E-01  3.2625E-01
  prteigrs : nnsclo,ikpt=   10   67 max resid (incl. the buffer)=  1.20697E-12
 Non-SCF case, kpt   68 (  0.38953  0.00000  0.00000), residuals and eigenvalues=
  4.73E-13  4.55E-13  8.33E-13  5.02E-13  8.51E-13  1.40E-13  9.63E-13  1.23E-12
 -6.1434E-01 -4.3225E-01 -2.4981E-01 -1.6287E-01  1.0040E-01  2.5610E-01
  2.7094E-01  3.3133E-01
  prteigrs : nnsclo,ikpt=   10   68 max resid (incl. the buffer)=  1.22586E-12
 Non-SCF case, kpt   69 (  0.39535  0.00000  0.00000), residuals and eigenvalues=
  4.51E-13  4.47E-13  8.15E-13  4.61E-13  6.40E-13  9.29E-13  4.93E-13  1.24E-12
 -6.1056E-01 -4.3761E-01 -2.5089E-01 -1.5912E-01  9.4991E-02  2.5592E-01
  2.7594E-01  3.3647E-01
  prteigrs : nnsclo,ikpt=   10   69 max resid (incl. the buffer)=  1.24235E-12
 Non-SCF case, kpt   70 (  0.40116  0.00000  0.00000), residuals and eigenvalues=
  7.19E-13  3.82E-13  2.61E-13  4.52E-13  7.04E-13  4.87E-13  2.31E-13  3.64E-13
 -6.0675E-01 -4.4292E-01 -2.5192E-01 -1.5567E-01  8.9837E-02  2.5562E-01
  2.8117E-01  3.4163E-01
 Non-SCF case, kpt   71 (  0.40698  0.00000  0.00000), residuals and eigenvalues=
  6.37E-13  4.71E-13  2.39E-13  4.25E-13  5.81E-13  3.36E-13  2.64E-13  4.13E-13
 -6.0289E-01 -4.4820E-01 -2.5289E-01 -1.5198E-01  8.4659E-02  2.5527E-01
  2.8653E-01  3.4689E-01
 Non-SCF case, kpt   72 (  0.41279  0.00000  0.00000), residuals and eigenvalues=
  7.84E-13  5.64E-13  8.88E-13  3.24E-13  8.38E-13  2.49E-13  5.51E-13  1.35E-12
 -5.9896E-01 -4.5341E-01 -2.5380E-01 -1.4831E-01  7.9617E-02  2.5497E-01
  2.9202E-01  3.5222E-01
  prteigrs : nnsclo,ikpt=   10   72 max resid (incl. the buffer)=  1.34839E-12
 Non-SCF case, kpt   73 (  0.41860  0.00000  0.00000), residuals and eigenvalues=
  4.21E-13  3.58E-13  2.42E-13  3.22E-13  9.82E-13  8.40E-13  4.05E-13  6.93E-13
 -5.9501E-01 -4.5855E-01 -2.5463E-01 -1.4471E-01  7.4826E-02  2.5466E-01
  2.9760E-01  3.5762E-01
 Non-SCF case, kpt   74 (  0.42442  0.00000  0.00000), residuals and eigenvalues=
  9.93E-13  3.89E-13  2.77E-13  3.30E-13  7.75E-13  8.44E-13  8.91E-13  7.90E-13
 -5.9105E-01 -4.6368E-01 -2.5542E-01 -1.4123E-01  7.0100E-02  2.5430E-01
  3.0326E-01  3.6305E-01
 Non-SCF case, kpt   75 (  0.43023  0.00000  0.00000), residuals and eigenvalues=
  8.26E-13  4.28E-13  3.01E-13  3.19E-13  6.55E-13  1.94E-13  1.90E-13  7.92E-13
 -5.8705E-01 -4.6875E-01 -2.5616E-01 -1.3784E-01  6.5560E-02  2.5397E-01
  3.0901E-01  3.6853E-01
 Non-SCF case, kpt   76 (  0.43605  0.00000  0.00000), residuals and eigenvalues=
  7.38E-13  7.97E-13  2.71E-13  5.13E-13  8.94E-13  4.65E-13  6.37E-13  5.14E-12
 -5.8304E-01 -4.7386E-01 -2.5684E-01 -1.3458E-01  6.1204E-02  2.5361E-01
  3.1484E-01  3.7406E-01
  prteigrs : nnsclo,ikpt=   10   76 max resid (incl. the buffer)=  5.13636E-12
 Non-SCF case, kpt   77 (  0.44186  0.00000  0.00000), residuals and eigenvalues=
  4.38E-13  9.49E-13  4.34E-13  2.87E-13  5.12E-13  9.70E-13  6.49E-13  1.78E-12
 -5.7906E-01 -4.7882E-01 -2.5749E-01 -1.3145E-01  5.6980E-02  2.5332E-01
  3.2073E-01  3.7962E-01
  prteigrs : nnsclo,ikpt=   10   77 max resid (incl. the buffer)=  1.78153E-12
 Non-SCF case, kpt   78 (  0.44767  0.00000  0.00000), residuals and eigenvalues=
  9.14E-13  3.49E-13  4.07E-13  2.74E-13  4.61E-13  4.88E-13  7.70E-13  3.53E-12
 -5.7504E-01 -4.8366E-01 -2.5806E-01 -1.2849E-01  5.3132E-02  2.5305E-01
  3.2670E-01  3.8523E-01
  prteigrs : nnsclo,ikpt=   10   78 max resid (incl. the buffer)=  3.52670E-12
 Non-SCF case, kpt   79 (  0.45349  0.00000  0.00000), residuals and eigenvalues=
  6.94E-13  3.27E-13  6.80E-13  7.16E-13  7.78E-13  6.37E-13  9.33E-13  2.86E-12
 -5.7103E-01 -4.8835E-01 -2.5856E-01 -1.2565E-01  4.9602E-02  2.5281E-01
  3.3275E-01  3.9087E-01
  prteigrs : nnsclo,ikpt=   10   79 max resid (incl. the buffer)=  2.86392E-12
 Non-SCF case, kpt   80 (  0.45930  0.00000  0.00000), residuals and eigenvalues=
  4.58E-13  8.00E-13  3.92E-13  8.02E-13  6.96E-13  8.76E-13  5.78E-13  2.29E-09
 -5.6707E-01 -4.9302E-01 -2.5907E-01 -1.2315E-01  4.6275E-02  2.5258E-01
  3.3887E-01  3.9652E-01
  prteigrs : nnsclo,ikpt=   10   80 max resid (incl. the buffer)=  2.29308E-09
 Non-SCF case, kpt   81 (  0.46512  0.00000  0.00000), residuals and eigenvalues=
  3.82E-13  7.99E-13  3.58E-13  6.95E-13  6.39E-13  8.67E-13  7.13E-13  1.15E-07
 -5.6318E-01 -4.9748E-01 -2.5946E-01 -1.2085E-01  4.3367E-02  2.5239E-01
  3.4505E-01  4.0217E-01
  prteigrs : nnsclo,ikpt=   10   81 max resid (incl. the buffer)=  1.15227E-07
 Non-SCF case, kpt   82 (  0.47093  0.00000  0.00000), residuals and eigenvalues=
  8.55E-13  7.76E-13  9.79E-13  4.22E-13  5.36E-13  8.53E-13  8.41E-13  3.08E-06
 -5.5941E-01 -5.0173E-01 -2.5978E-01 -1.1884E-01  4.0834E-02  2.5223E-01
  3.5130E-01  4.0782E-01
  prteigrs : nnsclo,ikpt=   10   82 max resid (incl. the buffer)=  3.07784E-06
 Non-SCF case, kpt   83 (  0.47674  0.00000  0.00000), residuals and eigenvalues=
  7.47E-13  3.96E-13  3.50E-13  7.64E-13  3.13E-13  3.78E-13  1.70E-13  5.70E-07
 -5.5585E-01 -5.0567E-01 -2.5993E-01 -1.1709E-01  3.8716E-02  2.5210E-01
  3.5762E-01  4.1048E-01
  prteigrs : nnsclo,ikpt=   10   83 max resid (incl. the buffer)=  5.69740E-07
 Non-SCF case, kpt   84 (  0.48256  0.00000  0.00000), residuals and eigenvalues=
  5.84E-13  4.58E-13  2.93E-13  8.82E-13  3.96E-13  2.37E-13  2.90E-13  6.06E-08
 -5.5264E-01 -5.0919E-01 -2.6014E-01 -1.1573E-01  3.7026E-02  2.5200E-01
  3.6399E-01  4.0369E-01
  prteigrs : nnsclo,ikpt=   10   84 max resid (incl. the buffer)=  6.06452E-08
 Non-SCF case, kpt   85 (  0.48837  0.00000  0.00000), residuals and eigenvalues=
  4.05E-13  5.12E-13  2.75E-13  9.94E-13  4.51E-13  2.22E-13  5.61E-13  4.03E-10
 -5.4998E-01 -5.1206E-01 -2.6029E-01 -1.1473E-01  3.5796E-02  2.5193E-01
  3.7041E-01  3.9699E-01
  prteigrs : nnsclo,ikpt=   10   85 max resid (incl. the buffer)=  4.03324E-10
 Non-SCF case, kpt   86 (  0.49419  0.00000  0.00000), residuals and eigenvalues=
  8.16E-13  5.11E-13  2.89E-13  2.69E-13  4.65E-13  2.34E-13  5.51E-12  3.86E-10
 -5.4817E-01 -5.1400E-01 -2.6038E-01 -1.1412E-01  3.5044E-02  2.5189E-01
  3.7683E-01  3.9040E-01
  prteigrs : nnsclo,ikpt=   10   86 max resid (incl. the buffer)=  3.85738E-10
 Non-SCF case, kpt   87 (  0.50000  0.00000  0.00000), residuals and eigenvalues=
  6.68E-13  8.51E-13  1.49E-13  9.77E-13  6.08E-13  5.25E-13  6.82E-13  8.94E-12
 -5.4750E-01 -5.1458E-01 -2.6037E-01 -1.1404E-01  3.4692E-02  2.5191E-01
  3.8202E-01  3.8516E-01
  prteigrs : nnsclo,ikpt=   10   87 max resid (incl. the buffer)=  8.93602E-12
 Non-SCF case, kpt   88 (  0.49667  0.00667  0.00000), residuals and eigenvalues=
  4.04E-13  6.24E-13  9.74E-13  5.27E-13  5.12E-13  9.75E-13  7.99E-12  1.43E-11
 -5.4750E-01 -5.1460E-01 -2.6066E-01 -1.1388E-01  3.4776E-02  2.5210E-01
  3.8206E-01  3.8519E-01
  prteigrs : nnsclo,ikpt=   10   88 max resid (incl. the buffer)=  1.43186E-11
 Non-SCF case, kpt   89 (  0.49333  0.01333  0.00000), residuals and eigenvalues=
  4.24E-13  6.46E-13  8.62E-13  5.34E-13  4.80E-13  3.98E-13  4.94E-12  1.16E-11
 -5.4742E-01 -5.1453E-01 -2.6106E-01 -1.1377E-01  3.4756E-02  2.5264E-01
  3.8216E-01  3.8530E-01
  prteigrs : nnsclo,ikpt=   10   89 max resid (incl. the buffer)=  1.15767E-11
 Non-SCF case, kpt   90 (  0.49000  0.02000  0.00000), residuals and eigenvalues=
  4.42E-13  6.62E-13  9.19E-13  5.21E-13  4.80E-13  4.82E-13  4.43E-12  9.17E-12
 -5.4730E-01 -5.1440E-01 -2.6172E-01 -1.1360E-01  3.4725E-02  2.5352E-01
  3.8234E-01  3.8548E-01
  prteigrs : nnsclo,ikpt=   10   90 max resid (incl. the buffer)=  9.16582E-12
 Non-SCF case, kpt   91 (  0.48667  0.02667  0.00000), residuals and eigenvalues=
  4.50E-13  6.63E-13  9.04E-13  5.03E-13  4.99E-13  5.84E-13  4.44E-12  7.30E-12
 -5.4713E-01 -5.1422E-01 -2.6264E-01 -1.1335E-01  3.4680E-02  2.5476E-01
  3.8258E-01  3.8574E-01
  prteigrs : nnsclo,ikpt=   10   91 max resid (incl. the buffer)=  7.29896E-12
 Non-SCF case, kpt   92 (  0.48333  0.03333  0.00000), residuals and eigenvalues=
  4.46E-13  6.54E-13  8.30E-13  4.87E-13  5.13E-13  7.10E-13  4.71E-12  6.97E-12
 -5.4691E-01 -5.1399E-01 -2.6381E-01 -1.1303E-01  3.4621E-02  2.5635E-01
  3.8288E-01  3.8606E-01
  prteigrs : nnsclo,ikpt=   10   92 max resid (incl. the buffer)=  6.96989E-12
 Non-SCF case, kpt   93 (  0.48000  0.04000  0.00000), residuals and eigenvalues=
  9.47E-13  3.71E-13  5.14E-13  3.74E-13  7.01E-13  4.18E-13  2.76E-12  4.76E-12
 -5.4664E-01 -5.1366E-01 -2.6517E-01 -1.1256E-01  3.4586E-02  2.5828E-01
  3.8326E-01  3.8647E-01
  prteigrs : nnsclo,ikpt=   10   93 max resid (incl. the buffer)=  4.75833E-12
 Non-SCF case, kpt   94 (  0.47667  0.04667  0.00000), residuals and eigenvalues=
  4.40E-13  3.84E-13  4.93E-13  5.06E-13  7.68E-13  5.30E-13  4.60E-12  7.02E-12
 -5.4631E-01 -5.1333E-01 -2.6683E-01 -1.1210E-01  3.4497E-02  2.6054E-01
  3.8371E-01  3.8694E-01
  prteigrs : nnsclo,ikpt=   10   94 max resid (incl. the buffer)=  7.02306E-12
 Non-SCF case, kpt   95 (  0.47333  0.05333  0.00000), residuals and eigenvalues=
  4.25E-13  9.70E-13  5.75E-13  5.48E-13  2.92E-13  8.07E-13  1.06E-11  6.94E-12
 -5.4594E-01 -5.1295E-01 -2.6869E-01 -1.1131E-01  3.4484E-02  2.6312E-01
  3.8423E-01  3.8749E-01
  prteigrs : nnsclo,ikpt=   10   95 max resid (incl. the buffer)=  1.06387E-11
 Non-SCF case, kpt   96 (  0.47000  0.06000  0.00000), residuals and eigenvalues=
  4.51E-13  9.71E-13  3.48E-13  5.57E-13  6.04E-13  9.56E-13  1.03E-11  3.17E-12
 -5.4553E-01 -5.1252E-01 -2.7104E-01 -1.1070E-01  3.4358E-02  2.6602E-01
  3.8481E-01  3.8810E-01
  prteigrs : nnsclo,ikpt=   10   96 max resid (incl. the buffer)=  1.03330E-11
 Non-SCF case, kpt   97 (  0.46667  0.06667  0.00000), residuals and eigenvalues=
  8.32E-13  4.01E-13  5.49E-13  8.19E-13  5.51E-13  4.48E-13  2.14E-11  3.09E-11
 -5.4507E-01 -5.1204E-01 -2.7382E-01 -1.1003E-01  3.4209E-02  2.6922E-01
  3.8545E-01  3.8879E-01
  prteigrs : nnsclo,ikpt=   10   97 max resid (incl. the buffer)=  3.09057E-11
 Non-SCF case, kpt   98 (  0.46333  0.07333  0.00000), residuals and eigenvalues=
  8.39E-13  3.79E-13  6.06E-13  8.45E-13  5.95E-13  6.97E-13  4.46E-11  6.40E-11
 -5.4455E-01 -5.1151E-01 -2.7638E-01 -1.0928E-01  3.4040E-02  2.7272E-01
  3.8617E-01  3.8955E-01
  prteigrs : nnsclo,ikpt=   10   98 max resid (incl. the buffer)=  6.40429E-11
 Non-SCF case, kpt   99 (  0.46000  0.08000  0.00000), residuals and eigenvalues=
  8.33E-13  3.57E-13  6.70E-13  8.82E-13  6.83E-13  5.32E-13  9.94E-11  1.42E-10
 -5.4398E-01 -5.1093E-01 -2.7914E-01 -1.0846E-01  3.3845E-02  2.7650E-01
  3.8695E-01  3.9037E-01
  prteigrs : nnsclo,ikpt=   10   99 max resid (incl. the buffer)=  1.42247E-10
 Non-SCF case, kpt  100 (  0.45667  0.08667  0.00000), residuals and eigenvalues=
  3.99E-13  4.50E-13  5.73E-13  3.72E-13  3.15E-13  2.49E-13  3.05E-10  3.49E-12
 -5.4336E-01 -5.1030E-01 -2.8197E-01 -1.0755E-01  3.3634E-02  2.8059E-01
  3.8780E-01  3.9127E-01
  prteigrs : nnsclo,ikpt=   10  100 max resid (incl. the buffer)=  3.05360E-10
 Non-SCF case, kpt  101 (  0.45333  0.09333  0.00000), residuals and eigenvalues=
  3.43E-13  3.96E-13  3.21E-13  2.80E-13  4.19E-13  6.50E-13  3.04E-11  9.14E-10
 -5.4270E-01 -5.0962E-01 -2.8553E-01 -1.0659E-01  3.3376E-02  2.8491E-01
  3.8871E-01  3.9224E-01
  prteigrs : nnsclo,ikpt=   10  101 max resid (incl. the buffer)=  9.14474E-10
 Non-SCF case, kpt  102 (  0.45000  0.10000  0.00000), residuals and eigenvalues=
  5.78E-13  4.25E-13  2.63E-13  3.00E-13  6.91E-13  7.35E-13  1.35E-09  1.78E-09
 -5.4199E-01 -5.0890E-01 -2.8868E-01 -1.0556E-01  3.3195E-02  2.8952E-01
  3.8969E-01  3.9328E-01
  prteigrs : nnsclo,ikpt=   10  102 max resid (incl. the buffer)=  1.77645E-09
 Non-SCF case, kpt  103 (  0.44667  0.10667  0.00000), residuals and eigenvalues=
  5.91E-13  3.84E-13  2.80E-13  3.10E-13  6.46E-13  3.30E-13  4.48E-10  8.39E-10
 -5.4122E-01 -5.0812E-01 -2.9214E-01 -1.0445E-01  3.2874E-02  2.9433E-01
  3.9074E-01  3.9439E-01
  prteigrs : nnsclo,ikpt=   10  103 max resid (incl. the buffer)=  8.39067E-10
 Non-SCF case, kpt  104 (  0.44333  0.11333  0.00000), residuals and eigenvalues=
  6.42E-13  3.38E-13  3.09E-13  3.38E-13  6.01E-13  9.81E-13  1.82E-09  3.68E-09
 -5.4043E-01 -5.0729E-01 -2.9578E-01 -1.0320E-01  3.2519E-02  2.9941E-01
  3.9184E-01  3.9557E-01
  prteigrs : nnsclo,ikpt=   10  104 max resid (incl. the buffer)=  3.68163E-09
 Non-SCF case, kpt  105 (  0.44000  0.12000  0.00000), residuals and eigenvalues=
  6.42E-13  3.06E-13  3.36E-13  3.55E-13  5.83E-13  7.06E-13  6.89E-09  1.62E-08
 -5.3956E-01 -5.0642E-01 -2.9952E-01 -1.0195E-01  3.2116E-02  3.0466E-01
  3.9301E-01  3.9682E-01
  prteigrs : nnsclo,ikpt=   10  105 max resid (incl. the buffer)=  1.61779E-08
 Non-SCF case, kpt  106 (  0.43667  0.12667  0.00000), residuals and eigenvalues=
  6.34E-13  2.80E-13  3.55E-13  3.79E-13  5.61E-13  4.10E-13  9.69E-10  3.68E-09
 -5.3865E-01 -5.0552E-01 -3.0340E-01 -1.0064E-01  3.1666E-02  3.1011E-01
  3.9424E-01  3.9813E-01
  prteigrs : nnsclo,ikpt=   10  106 max resid (incl. the buffer)=  3.67998E-09
 Non-SCF case, kpt  107 (  0.43333  0.13333  0.00000), residuals and eigenvalues=
  8.37E-13  5.83E-13  3.34E-13  6.71E-13  6.44E-13  4.12E-13  6.49E-09  8.71E-09
 -5.3772E-01 -5.0457E-01 -3.0785E-01 -9.9106E-02  3.1170E-02  3.1571E-01
  3.9553E-01  3.9951E-01
  prteigrs : nnsclo,ikpt=   10  107 max resid (incl. the buffer)=  8.70652E-09
 Non-SCF case, kpt  108 (  0.43000  0.14000  0.00000), residuals and eigenvalues=
  7.79E-13  5.68E-13  3.65E-13  6.58E-13  6.49E-13  6.76E-13  2.98E-08  3.13E-08
 -5.3671E-01 -5.0357E-01 -3.1194E-01 -9.7653E-02  3.0616E-02  3.2151E-01
  3.9689E-01  4.0096E-01
  prteigrs : nnsclo,ikpt=   10  108 max resid (incl. the buffer)=  3.12757E-08
 Non-SCF case, kpt  109 (  0.42667  0.14667  0.00000), residuals and eigenvalues=
  9.62E-13  4.91E-13  2.54E-13  2.77E-13  6.07E-13  6.82E-13  4.66E-08  4.77E-06
 -5.3566E-01 -5.0258E-01 -3.1616E-01 -9.6218E-02  2.9953E-02  3.2741E-01
  3.9830E-01  4.0248E-01
  prteigrs : nnsclo,ikpt=   10  109 max resid (incl. the buffer)=  4.77338E-06
 Non-SCF case, kpt  110 (  0.42333  0.15333  0.00000), residuals and eigenvalues=
  6.77E-13  2.60E-13  7.97E-13  3.75E-13  4.21E-13  9.23E-13  5.74E-07  2.31E-08
 -5.3455E-01 -5.0150E-01 -3.2033E-01 -9.4607E-02  2.9285E-02  3.3358E-01
  3.9978E-01  4.0404E-01
  prteigrs : nnsclo,ikpt=   10  110 max resid (incl. the buffer)=  5.73604E-07
 Non-SCF case, kpt  111 (  0.42000  0.16000  0.00000), residuals and eigenvalues=
  7.01E-13  2.85E-13  1.83E-13  3.92E-13  5.12E-13  1.90E-11  3.25E-07  5.41E-05
 -5.3339E-01 -5.0038E-01 -3.2469E-01 -9.2945E-02  2.8545E-02  3.3982E-01
  4.0140E-01  4.0366E-01
  prteigrs : nnsclo,ikpt=   10  111 max resid (incl. the buffer)=  5.40834E-05
 Non-SCF case, kpt  112 (  0.41667  0.16667  0.00000), residuals and eigenvalues=
  6.90E-13  3.12E-13  1.73E-13  3.97E-13  6.65E-13  1.70E-10  7.45E-06  5.40E-05
 -5.3218E-01 -4.9923E-01 -3.2911E-01 -9.1212E-02  2.7735E-02  3.4617E-01
  3.9919E-01  4.0424E-01
  prteigrs : nnsclo,ikpt=   10  112 max resid (incl. the buffer)=  5.39723E-05
 Non-SCF case, kpt  113 (  0.41333  0.17333  0.00000), residuals and eigenvalues=
  3.62E-13  2.31E-13  5.88E-13  8.94E-13  6.51E-13  6.99E-11  5.15E-09  1.56E-06
 -5.3094E-01 -4.9805E-01 -3.3378E-01 -8.9411E-02  2.6368E-02  3.5252E-01
  3.9629E-01  4.0454E-01
  prteigrs : nnsclo,ikpt=   10  113 max resid (incl. the buffer)=  1.56341E-06
 Non-SCF case, kpt  114 (  0.41000  0.18000  0.00000), residuals and eigenvalues=
  3.43E-13  2.22E-13  5.76E-13  2.97E-13  4.73E-13  1.58E-10  4.06E-10  1.11E-06
 -5.2963E-01 -4.9684E-01 -3.3831E-01 -8.7538E-02  2.5395E-02  3.5905E-01
  3.9362E-01  4.0622E-01
  prteigrs : nnsclo,ikpt=   10  114 max resid (incl. the buffer)=  1.10872E-06
 Non-SCF case, kpt  115 (  0.40667  0.18667  0.00000), residuals and eigenvalues=
  7.14E-13  4.10E-13  2.39E-13  6.14E-13  7.29E-13  2.24E-09  6.24E-11  1.01E-06
 -5.2829E-01 -4.9560E-01 -3.4321E-01 -8.5596E-02  2.4310E-02  3.6555E-01
  3.9092E-01  4.0795E-01
  prteigrs : nnsclo,ikpt=   10  115 max resid (incl. the buffer)=  1.01266E-06
 Non-SCF case, kpt  116 (  0.40333  0.19333  0.00000), residuals and eigenvalues=
  5.06E-13  2.54E-13  5.33E-13  7.03E-13  8.02E-13  1.20E-09  7.89E-11  1.05E-05
 -5.2687E-01 -4.9427E-01 -3.4773E-01 -8.3518E-02  2.3194E-02  3.7219E-01
  3.8823E-01  4.0983E-01
  prteigrs : nnsclo,ikpt=   10  116 max resid (incl. the buffer)=  1.04704E-05
 Non-SCF case, kpt  117 (  0.40000  0.20000  0.00000), residuals and eigenvalues=
  4.55E-13  2.04E-13  7.85E-13  4.16E-13  3.82E-13  2.25E-10  3.49E-13  1.27E-06
 -5.2541E-01 -4.9299E-01 -3.5234E-01 -8.1438E-02  2.1959E-02  3.7885E-01
  3.8556E-01  4.1160E-01
  prteigrs : nnsclo,ikpt=   10  117 max resid (incl. the buffer)=  1.26614E-06
 Non-SCF case, kpt  118 (  0.39667  0.20667  0.00000), residuals and eigenvalues=
  8.58E-13  1.61E-13  8.10E-13  5.13E-13  6.10E-13  8.41E-12  2.78E-08  3.76E-06
 -5.2391E-01 -4.9168E-01 -3.5687E-01 -7.9277E-02  2.0632E-02  3.8292E-01
  3.8561E-01  4.1348E-01
  prteigrs : nnsclo,ikpt=   10  118 max resid (incl. the buffer)=  3.76049E-06
 Non-SCF case, kpt  119 (  0.39333  0.21333  0.00000), residuals and eigenvalues=
  8.39E-13  1.77E-13  7.01E-13  5.35E-13  5.57E-13  9.78E-13  2.65E-07  8.77E-07
 -5.2235E-01 -4.9037E-01 -3.6149E-01 -7.7058E-02  1.9202E-02  3.8034E-01
  3.9226E-01  4.1539E-01
  prteigrs : nnsclo,ikpt=   10  119 max resid (incl. the buffer)=  8.77205E-07
 Non-SCF case, kpt  120 (  0.39000  0.22000  0.00000), residuals and eigenvalues=
  8.12E-13  1.79E-13  5.84E-13  6.55E-13  5.55E-13  8.11E-13  5.81E-07  6.30E-07
 -5.2075E-01 -4.8905E-01 -3.6610E-01 -7.4771E-02  1.7670E-02  3.7783E-01
  3.9884E-01  4.1734E-01
  prteigrs : nnsclo,ikpt=   10  120 max resid (incl. the buffer)=  6.29754E-07
 Non-SCF case, kpt  121 (  0.38667  0.22667  0.00000), residuals and eigenvalues=
  4.39E-13  2.99E-13  2.02E-13  8.92E-13  7.39E-13  6.95E-13  1.91E-06  1.50E-06
 -5.1904E-01 -4.8774E-01 -3.7063E-01 -7.2412E-02  1.6150E-02  3.7540E-01
  4.0532E-01  4.1939E-01
  prteigrs : nnsclo,ikpt=   10  121 max resid (incl. the buffer)=  1.91172E-06
 Non-SCF case, kpt  122 (  0.38333  0.23333  0.00000), residuals and eigenvalues=
  6.79E-13  1.69E-13  5.48E-13  7.73E-13  4.32E-13  4.51E-13  3.94E-08  2.20E-07
 -5.1739E-01 -4.8645E-01 -3.7523E-01 -7.0042E-02  1.4367E-02  3.7306E-01
  4.1157E-01  4.2135E-01
  prteigrs : nnsclo,ikpt=   10  122 max resid (incl. the buffer)=  2.20449E-07
 Non-SCF case, kpt  123 (  0.38000  0.24000  0.00000), residuals and eigenvalues=
  6.58E-13  5.16E-13  3.29E-13  4.16E-13  5.03E-13  4.20E-13  5.10E-06  7.69E-08
 -5.1563E-01 -4.8519E-01 -3.7961E-01 -6.7545E-02  1.2511E-02  3.7084E-01
  4.1777E-01  4.2340E-01
  prteigrs : nnsclo,ikpt=   10  123 max resid (incl. the buffer)=  5.09580E-06
 Non-SCF case, kpt  124 (  0.37667  0.24667  0.00000), residuals and eigenvalues=
  4.80E-13  2.69E-13  2.97E-13  4.37E-13  4.89E-13  1.60E-13  2.22E-05  2.76E-05
 -5.1382E-01 -4.8397E-01 -3.8390E-01 -6.4984E-02  1.0780E-02  3.6874E-01
  4.2398E-01  4.2572E-01
  prteigrs : nnsclo,ikpt=   10  124 max resid (incl. the buffer)=  2.75603E-05
 Non-SCF case, kpt  125 (  0.37333  0.25333  0.00000), residuals and eigenvalues=
  6.10E-13  1.26E-13  3.83E-13  7.47E-13  9.62E-13  9.42E-13  1.97E-08  5.54E-06
 -5.1198E-01 -4.8281E-01 -3.8820E-01 -6.2356E-02  8.4392E-03  3.6675E-01
  4.2754E-01  4.2840E-01
  prteigrs : nnsclo,ikpt=   10  125 max resid (incl. the buffer)=  5.54267E-06
 Non-SCF case, kpt  126 (  0.37000  0.26000  0.00000), residuals and eigenvalues=
  4.77E-13  9.91E-13  9.68E-13  9.18E-13  8.76E-13  6.41E-13  8.37E-08  4.25E-06
 -5.1007E-01 -4.8174E-01 -3.9228E-01 -5.9660E-02  6.2355E-03  3.6492E-01
  4.2964E-01  4.3250E-01
  prteigrs : nnsclo,ikpt=   10  126 max resid (incl. the buffer)=  4.24825E-06
 Non-SCF case, kpt  127 (  0.36667  0.26667  0.00000), residuals and eigenvalues=
  3.92E-13  9.01E-13  2.85E-13  3.32E-13  3.82E-13  1.67E-13  1.76E-07  1.72E-06
 -5.0813E-01 -4.8079E-01 -3.9651E-01 -5.6897E-02  3.8634E-03  3.6323E-01
  4.3173E-01  4.3566E-01
  prteigrs : nnsclo,ikpt=   10  127 max resid (incl. the buffer)=  1.71536E-06
 Non-SCF case, kpt  128 (  0.36333  0.27333  0.00000), residuals and eigenvalues=
  9.95E-13  3.28E-13  5.68E-13  3.34E-13  5.87E-13  7.88E-13  1.02E-07  7.40E-06
 -5.0614E-01 -4.7987E-01 -4.0033E-01 -5.3973E-02  1.4396E-03  3.6171E-01
  4.3380E-01  4.3857E-01
  prteigrs : nnsclo,ikpt=   10  128 max resid (incl. the buffer)=  7.39525E-06
 Non-SCF case, kpt  129 (  0.36000  0.28000  0.00000), residuals and eigenvalues=
  9.15E-13  3.23E-13  5.93E-13  2.84E-13  4.88E-13  9.49E-13  1.18E-07  4.40E-06
 -5.0410E-01 -4.7924E-01 -4.0392E-01 -5.1077E-02 -1.1123E-03  3.6034E-01
  4.3586E-01  4.4104E-01
  prteigrs : nnsclo,ikpt=   10  129 max resid (incl. the buffer)=  4.39972E-06
 Non-SCF case, kpt  130 (  0.35667  0.28667  0.00000), residuals and eigenvalues=
  8.43E-13  3.19E-13  6.19E-13  9.98E-13  4.06E-13  4.64E-13  1.50E-07  2.84E-06
 -5.0201E-01 -4.7885E-01 -4.0723E-01 -4.8114E-02 -3.7787E-03  3.5914E-01
  4.3789E-01  4.4333E-01
  prteigrs : nnsclo,ikpt=   10  130 max resid (incl. the buffer)=  2.84435E-06
 Non-SCF case, kpt  131 (  0.35333  0.29333  0.00000), residuals and eigenvalues=
  7.73E-13  3.15E-13  6.43E-13  8.32E-13  3.64E-13  8.27E-13  1.20E-06  4.94E-06
 -4.9987E-01 -4.7873E-01 -4.1020E-01 -4.5086E-02 -6.5579E-03  3.5810E-01
  4.3989E-01  4.4549E-01
  prteigrs : nnsclo,ikpt=   10  131 max resid (incl. the buffer)=  4.93799E-06
 Non-SCF case, kpt  132 (  0.35000  0.30000  0.00000), residuals and eigenvalues=
  7.02E-13  3.11E-13  6.52E-13  6.76E-13  3.89E-13  2.32E-13  1.54E-06  4.05E-06
 -4.9769E-01 -4.7894E-01 -4.1279E-01 -4.1991E-02 -9.4482E-03  3.5722E-01
  4.4186E-01  4.4744E-01
  prteigrs : nnsclo,ikpt=   10  132 max resid (incl. the buffer)=  4.05031E-06
 Non-SCF case, kpt  133 (  0.34667  0.30667  0.00000), residuals and eigenvalues=
  6.31E-13  3.09E-13  6.31E-13  5.37E-13  4.98E-13  5.81E-13  2.29E-06  4.35E-06
 -4.9545E-01 -4.7953E-01 -4.1494E-01 -3.8830E-02 -1.2447E-02  3.5651E-01
  4.4377E-01  4.4918E-01
  prteigrs : nnsclo,ikpt=   10  133 max resid (incl. the buffer)=  4.34528E-06
 Non-SCF case, kpt  134 (  0.34333  0.31333  0.00000), residuals and eigenvalues=
  3.52E-13  2.62E-13  8.64E-13  6.97E-13  7.15E-13  9.09E-13  4.59E-06  3.41E-06
 -4.9313E-01 -4.8052E-01 -4.1648E-01 -3.5548E-02 -1.5534E-02  3.5597E-01
  4.4571E-01  4.5059E-01
  prteigrs : nnsclo,ikpt=   10  134 max resid (incl. the buffer)=  4.59333E-06
 Non-SCF case, kpt  135 (  0.34000  0.32000  0.00000), residuals and eigenvalues=
  2.16E-13  4.84E-13  8.83E-13  3.95E-13  8.84E-13  2.13E-13  3.79E-06  8.29E-06
 -4.9079E-01 -4.8188E-01 -4.1758E-01 -3.2125E-02 -1.8639E-02  3.5558E-01
  4.4752E-01  4.5163E-01
  prteigrs : nnsclo,ikpt=   10  135 max resid (incl. the buffer)=  8.29034E-06
 Non-SCF case, kpt  136 (  0.33667  0.32667  0.00000), residuals and eigenvalues=
  1.90E-13  4.61E-13  7.67E-13  3.35E-13  8.19E-13  3.77E-13  3.71E-06  7.07E-06
 -4.8841E-01 -4.8373E-01 -4.1829E-01 -2.8770E-02 -2.1948E-02  3.5536E-01
  4.4921E-01  4.5174E-01
  prteigrs : nnsclo,ikpt=   10  136 max resid (incl. the buffer)=  7.07377E-06
 Non-SCF case, kpt  137 (  0.33333  0.33333  0.00000), residuals and eigenvalues=
  5.00E-13  3.48E-13  6.64E-13  4.98E-13  5.62E-13  2.22E-13  5.13E-09  2.85E-05
 -4.8599E-01 -4.8599E-01 -4.1852E-01 -2.5352E-02 -2.5352E-02  3.5528E-01
  4.5076E-01  4.5091E-01
  prteigrs : nnsclo,ikpt=   10  137 max resid (incl. the buffer)=  2.85049E-05
 Non-SCF case, kpt  138 (  0.33000  0.33000  0.00000), residuals and eigenvalues=
  3.49E-13  2.42E-13  7.19E-13  7.20E-13  2.33E-13  3.04E-13  5.78E-06  6.69E-05
 -4.8862E-01 -4.8351E-01 -4.1830E-01 -2.8847E-02 -2.1870E-02  3.5535E-01
  4.4864E-01  4.5256E-01
  prteigrs : nnsclo,ikpt=   10  138 max resid (incl. the buffer)=  6.68784E-05
 Non-SCF case, kpt  139 (  0.32667  0.32667  0.00000), residuals and eigenvalues=
  3.80E-13  2.41E-13  7.61E-13  7.58E-13  4.18E-13  6.64E-13  9.31E-07  2.13E-05
 -4.9158E-01 -4.8099E-01 -4.1769E-01 -3.2429E-02 -1.8324E-02  3.5557E-01
  4.4541E-01  4.5390E-01
  prteigrs : nnsclo,ikpt=   10  139 max resid (incl. the buffer)=  2.12585E-05
 Non-SCF case, kpt  140 (  0.32333  0.32333  0.00000), residuals and eigenvalues=
  4.06E-13  2.37E-13  8.02E-13  3.06E-13  9.90E-13  6.54E-13  1.25E-06  9.24E-05
 -4.9482E-01 -4.7842E-01 -4.1672E-01 -3.6092E-02 -1.4715E-02  3.5591E-01
  4.4135E-01  4.5657E-01
  prteigrs : nnsclo,ikpt=   10  140 max resid (incl. the buffer)=  9.23560E-05
 Non-SCF case, kpt  141 (  0.32000  0.32000  0.00000), residuals and eigenvalues=
  4.44E-13  6.28E-13  5.24E-13  2.88E-13  4.06E-13  2.97E-13  1.09E-06  4.14E-05
 -4.9839E-01 -4.7583E-01 -4.1558E-01 -3.9966E-02 -1.1146E-02  3.5637E-01
  4.3655E-01  4.5643E-01
  prteigrs : nnsclo,ikpt=   10  141 max resid (incl. the buffer)=  4.14494E-05
 Non-SCF case, kpt  142 (  0.31667  0.31667  0.00000), residuals and eigenvalues=
  7.65E-13  2.23E-13  8.01E-13  1.93E-13  8.48E-13  9.77E-13  7.84E-09  2.05E-05
 -5.0206E-01 -4.7321E-01 -4.1419E-01 -4.3820E-02 -7.5336E-03  3.5693E-01
  4.3142E-01  4.5702E-01
  prteigrs : nnsclo,ikpt=   10  142 max resid (incl. the buffer)=  2.04962E-05
 Non-SCF case, kpt  143 (  0.31333  0.31333  0.00000), residuals and eigenvalues=
  2.01E-13  6.13E-13  9.30E-13  7.28E-13  8.25E-13  8.64E-13  6.75E-09  1.72E-05
 -5.0591E-01 -4.7058E-01 -4.1243E-01 -4.7748E-02 -3.8099E-03  3.5760E-01
  4.2594E-01  4.5763E-01
  prteigrs : nnsclo,ikpt=   10  143 max resid (incl. the buffer)=  1.72039E-05
 Non-SCF case, kpt  144 (  0.31000  0.31000  0.00000), residuals and eigenvalues=
  2.15E-13  6.02E-13  2.81E-13  7.32E-13  3.10E-13  7.02E-13  4.57E-10  1.31E-05
 -5.0986E-01 -4.6783E-01 -4.1046E-01 -5.1692E-02  4.2657E-05  3.5835E-01
  4.2023E-01  4.5823E-01
  prteigrs : nnsclo,ikpt=   10  144 max resid (incl. the buffer)=  1.30632E-05
 Non-SCF case, kpt  145 (  0.30667  0.30667  0.00000), residuals and eigenvalues=
  2.43E-13  5.61E-13  2.87E-13  6.33E-13  3.37E-13  3.13E-13  4.68E-11  1.32E-05
 -5.1390E-01 -4.6503E-01 -4.0832E-01 -5.5694E-02  3.9559E-03  3.5916E-01
  4.1435E-01  4.5878E-01
  prteigrs : nnsclo,ikpt=   10  145 max resid (incl. the buffer)=  1.32260E-05
 Non-SCF case, kpt  146 (  0.30333  0.30333  0.00000), residuals and eigenvalues=
  2.76E-13  4.99E-13  2.69E-13  5.24E-13  3.46E-13  3.80E-13  4.01E-12  1.10E-05
 -5.1802E-01 -4.6218E-01 -4.0602E-01 -5.9748E-02  7.9294E-03  3.6001E-01
  4.0833E-01  4.5920E-01
  prteigrs : nnsclo,ikpt=   10  146 max resid (incl. the buffer)=  1.09606E-05
 Non-SCF case, kpt  147 (  0.30000  0.30000  0.00000), residuals and eigenvalues=
  3.22E-13  4.37E-13  2.48E-13  4.70E-13  3.83E-13  5.81E-13  9.90E-13  1.13E-05
 -5.2220E-01 -4.5928E-01 -4.0360E-01 -6.3849E-02  1.1962E-02  3.6088E-01
  4.0223E-01  4.5953E-01
  prteigrs : nnsclo,ikpt=   10  147 max resid (incl. the buffer)=  1.12605E-05
 Non-SCF case, kpt  148 (  0.29667  0.29667  0.00000), residuals and eigenvalues=
  3.97E-13  3.84E-13  9.90E-13  4.87E-13  4.45E-13  5.46E-13  1.28E-12  1.11E-05
 -5.2642E-01 -4.5634E-01 -4.0106E-01 -6.7993E-02  1.6055E-02  3.6174E-01
  3.9606E-01  4.5978E-01
  prteigrs : nnsclo,ikpt=   10  148 max resid (incl. the buffer)=  1.10764E-05
 Non-SCF case, kpt  149 (  0.29333  0.29333  0.00000), residuals and eigenvalues=
  3.92E-13  3.30E-13  9.80E-13  6.14E-13  6.97E-13  8.97E-13  1.68E-12  1.33E-05
 -5.3066E-01 -4.5335E-01 -3.9830E-01 -7.2239E-02  2.0094E-02  3.6256E-01
  3.8985E-01  4.6026E-01
  prteigrs : nnsclo,ikpt=   10  149 max resid (incl. the buffer)=  1.32986E-05
 Non-SCF case, kpt  150 (  0.29000  0.29000  0.00000), residuals and eigenvalues=
  4.86E-13  2.92E-13  9.09E-13  6.38E-13  8.32E-13  9.35E-13  7.64E-12  4.22E-06
 -5.3492E-01 -4.5032E-01 -3.9555E-01 -7.6454E-02  2.4299E-02  3.6330E-01
  3.8363E-01  4.5934E-01
  prteigrs : nnsclo,ikpt=   10  150 max resid (incl. the buffer)=  4.21613E-06
 Non-SCF case, kpt  151 (  0.28667  0.28667  0.00000), residuals and eigenvalues=
  6.10E-13  2.72E-13  8.67E-13  7.05E-13  9.26E-13  7.27E-13  3.28E-12  5.77E-06
 -5.3920E-01 -4.4724E-01 -3.9272E-01 -8.0698E-02  2.8562E-02  3.6393E-01
  3.7740E-01  4.5765E-01
  prteigrs : nnsclo,ikpt=   10  151 max resid (incl. the buffer)=  5.76741E-06
 Non-SCF case, kpt  152 (  0.28333  0.28333  0.00000), residuals and eigenvalues=
  7.57E-13  2.67E-13  8.65E-13  8.33E-13  9.47E-13  6.73E-13  1.41E-12  4.71E-06
 -5.4347E-01 -4.4412E-01 -3.8981E-01 -8.4966E-02  3.2882E-02  3.6440E-01
  3.7118E-01  4.5528E-01
  prteigrs : nnsclo,ikpt=   10  152 max resid (incl. the buffer)=  4.70885E-06
 Non-SCF case, kpt  153 (  0.28000  0.28000  0.00000), residuals and eigenvalues=
  9.65E-13  4.09E-13  3.80E-13  5.55E-13  2.96E-13  6.82E-13  4.24E-13  3.18E-05
 -5.4774E-01 -4.4100E-01 -3.8683E-01 -8.9397E-02  3.7255E-02  3.6464E-01
  3.6498E-01  4.5327E-01
  prteigrs : nnsclo,ikpt=   10  153 max resid (incl. the buffer)=  3.17687E-05
 Non-SCF case, kpt  154 (  0.27667  0.27667  0.00000), residuals and eigenvalues=
  4.95E-13  6.29E-13  8.50E-13  3.25E-13  7.92E-13  3.12E-13  3.82E-12  1.44E-06
 -5.5201E-01 -4.3780E-01 -3.8380E-01 -9.3699E-02  4.1686E-02  3.5880E-01
  3.6464E-01  4.4952E-01
  prteigrs : nnsclo,ikpt=   10  154 max resid (incl. the buffer)=  1.43552E-06
 Non-SCF case, kpt  155 (  0.27333  0.27333  0.00000), residuals and eigenvalues=
  6.32E-13  5.49E-13  6.03E-13  2.93E-13  8.40E-13  8.64E-13  1.56E-11  7.81E-06
 -5.5624E-01 -4.3451E-01 -3.8065E-01 -9.7951E-02  4.6500E-02  3.5266E-01
  3.6437E-01  4.4633E-01
  prteigrs : nnsclo,ikpt=   10  155 max resid (incl. the buffer)=  7.80774E-06
 Non-SCF case, kpt  156 (  0.27000  0.27000  0.00000), residuals and eigenvalues=
  9.05E-13  3.23E-13  9.53E-13  5.13E-13  2.86E-13  5.04E-13  4.05E-13  3.05E-07
 -5.6048E-01 -4.3123E-01 -3.7751E-01 -1.0228E-01  5.1038E-02  3.4655E-01
  3.6372E-01  4.4266E-01
  prteigrs : nnsclo,ikpt=   10  156 max resid (incl. the buffer)=  3.04615E-07
 Non-SCF case, kpt  157 (  0.26667  0.26667  0.00000), residuals and eigenvalues=
  7.63E-13  1.69E-13  4.38E-13  5.18E-13  7.92E-13  3.86E-13  1.90E-11  1.11E-05
 -5.6474E-01 -4.2789E-01 -3.7435E-01 -1.0669E-01  5.5628E-02  3.4048E-01
  3.6270E-01  4.3867E-01
  prteigrs : nnsclo,ikpt=   10  157 max resid (incl. the buffer)=  1.10911E-05
 Non-SCF case, kpt  158 (  0.26333  0.26333  0.00000), residuals and eigenvalues=
  9.18E-13  1.56E-13  4.76E-13  3.73E-13  2.34E-13  9.21E-13  1.51E-11  3.88E-06
 -5.6891E-01 -4.2450E-01 -3.7106E-01 -1.1102E-01  6.0271E-02  3.3447E-01
  3.6128E-01  4.3423E-01
  prteigrs : nnsclo,ikpt=   10  158 max resid (incl. the buffer)=  3.88355E-06
 Non-SCF case, kpt  159 (  0.26000  0.26000  0.00000), residuals and eigenvalues=
  4.13E-13  3.83E-13  2.74E-13  5.01E-13  5.84E-13  4.11E-13  8.48E-13  1.94E-05
 -5.7306E-01 -4.2106E-01 -3.6771E-01 -1.1524E-01  6.5387E-02  3.2852E-01
  3.5950E-01  4.2955E-01
  prteigrs : nnsclo,ikpt=   10  159 max resid (incl. the buffer)=  1.94066E-05
 Non-SCF case, kpt  160 (  0.25667  0.25667  0.00000), residuals and eigenvalues=
  2.90E-13  2.80E-13  3.56E-13  3.40E-13  1.89E-13  9.94E-13  2.72E-12  1.39E-06
 -5.7719E-01 -4.1758E-01 -3.6434E-01 -1.1974E-01  7.0133E-02  3.2261E-01
  3.5727E-01  4.2429E-01
  prteigrs : nnsclo,ikpt=   10  160 max resid (incl. the buffer)=  1.39485E-06
 Non-SCF case, kpt  161 (  0.25333  0.25333  0.00000), residuals and eigenvalues=
  5.45E-13  7.86E-13  6.75E-13  6.97E-13  5.69E-13  9.70E-13  1.20E-11  4.29E-06
 -5.8126E-01 -4.1407E-01 -3.6095E-01 -1.2415E-01  7.4771E-02  3.1676E-01
  3.5468E-01  4.1904E-01
  prteigrs : nnsclo,ikpt=   10  161 max resid (incl. the buffer)=  4.29283E-06
 Non-SCF case, kpt  162 (  0.25000  0.25000  0.00000), residuals and eigenvalues=
  9.00E-13  5.39E-13  8.16E-13  3.80E-13  4.21E-13  1.90E-13  7.72E-10  3.59E-06
 -5.8527E-01 -4.1038E-01 -3.5721E-01 -1.2843E-01  7.9739E-02  3.1099E-01
  3.5178E-01  4.1370E-01
  prteigrs : nnsclo,ikpt=   10  162 max resid (incl. the buffer)=  3.58716E-06
 Non-SCF case, kpt  163 (  0.24667  0.24667  0.00000), residuals and eigenvalues=
  2.26E-13  5.13E-13  8.45E-13  4.29E-13  4.46E-13  1.94E-13  9.79E-10  2.37E-06
 -5.8929E-01 -4.0677E-01 -3.5370E-01 -1.3271E-01  8.4625E-02  3.0527E-01
  3.4858E-01  4.0828E-01
  prteigrs : nnsclo,ikpt=   10  163 max resid (incl. the buffer)=  2.36900E-06
 Non-SCF case, kpt  164 (  0.24333  0.24333  0.00000), residuals and eigenvalues=
  7.81E-13  7.86E-13  6.95E-13  3.84E-13  6.54E-13  3.14E-13  2.30E-12  6.63E-07
 -5.9322E-01 -4.0312E-01 -3.5010E-01 -1.3693E-01  8.9558E-02  2.9962E-01
  3.4514E-01  4.0285E-01
  prteigrs : nnsclo,ikpt=   10  164 max resid (incl. the buffer)=  6.62936E-07
 Non-SCF case, kpt  165 (  0.24000  0.24000  0.00000), residuals and eigenvalues=
  4.95E-13  2.14E-13  7.53E-13  9.59E-13  4.42E-13  2.23E-13  3.81E-13  5.45E-07
 -5.9716E-01 -3.9943E-01 -3.4658E-01 -1.4117E-01  9.4535E-02  2.9403E-01
  3.4148E-01  3.9742E-01
  prteigrs : nnsclo,ikpt=   10  165 max resid (incl. the buffer)=  5.44619E-07
 Non-SCF case, kpt  166 (  0.23667  0.23667  0.00000), residuals and eigenvalues=
  4.80E-13  2.06E-13  8.05E-13  2.29E-13  6.05E-13  2.12E-13  4.47E-13  3.97E-07
 -6.0106E-01 -3.9569E-01 -3.4295E-01 -1.4539E-01  9.9556E-02  2.8850E-01
  3.3764E-01  3.9203E-01
  prteigrs : nnsclo,ikpt=   10  166 max resid (incl. the buffer)=  3.97326E-07
 Non-SCF case, kpt  167 (  0.23333  0.23333  0.00000), residuals and eigenvalues=
  4.52E-13  1.99E-13  8.69E-13  2.37E-13  8.30E-13  2.00E-13  5.19E-13  2.84E-07
 -6.0492E-01 -3.9192E-01 -3.3929E-01 -1.4959E-01  1.0462E-01  2.8304E-01
  3.3366E-01  3.8669E-01
  prteigrs : nnsclo,ikpt=   10  167 max resid (incl. the buffer)=  2.83856E-07
 Non-SCF case, kpt  168 (  0.23000  0.23000  0.00000), residuals and eigenvalues=
  2.97E-13  1.78E-13  4.49E-13  6.50E-13  6.10E-13  1.87E-13  5.76E-12  1.04E-07
 -6.0875E-01 -3.8823E-01 -3.3575E-01 -1.5380E-01  1.0963E-01  2.7765E-01
  3.2956E-01  3.8136E-01
  prteigrs : nnsclo,ikpt=   10  168 max resid (incl. the buffer)=  1.04369E-07
 Non-SCF case, kpt  169 (  0.22667  0.22667  0.00000), residuals and eigenvalues=
  3.17E-13  1.69E-13  4.85E-13  7.10E-13  9.08E-13  1.70E-13  5.08E-12  6.37E-08
 -6.1252E-01 -3.8438E-01 -3.3203E-01 -1.5794E-01  1.1477E-01  2.7233E-01
  3.2539E-01  3.7612E-01
  prteigrs : nnsclo,ikpt=   10  169 max resid (incl. the buffer)=  6.36731E-08
 Non-SCF case, kpt  170 (  0.22333  0.22333  0.00000), residuals and eigenvalues=
  3.41E-13  9.52E-13  5.24E-13  7.92E-13  5.08E-13  9.87E-13  4.47E-12  4.36E-08
 -6.1625E-01 -3.8049E-01 -3.2828E-01 -1.6204E-01  1.1995E-01  2.6708E-01
  3.2115E-01  3.7094E-01
  prteigrs : nnsclo,ikpt=   10  170 max resid (incl. the buffer)=  4.36451E-08
 Non-SCF case, kpt  171 (  0.22000  0.22000  0.00000), residuals and eigenvalues=
  8.94E-13  7.27E-13  5.38E-13  8.83E-13  7.90E-13  9.03E-13  3.33E-10  2.85E-07
 -6.1993E-01 -3.7644E-01 -3.2436E-01 -1.6613E-01  1.2519E-01  2.6190E-01
  3.1687E-01  3.6582E-01
  prteigrs : nnsclo,ikpt=   10  171 max resid (incl. the buffer)=  2.84771E-07
 Non-SCF case, kpt  172 (  0.21667  0.21667  0.00000), residuals and eigenvalues=
  4.95E-13  7.69E-13  6.84E-13  3.02E-13  9.95E-13  9.27E-13  1.16E-11  6.18E-09
 -6.2352E-01 -3.7245E-01 -3.2053E-01 -1.7002E-01  1.3045E-01  2.5680E-01
  3.1261E-01  3.6077E-01
  prteigrs : nnsclo,ikpt=   10  172 max resid (incl. the buffer)=  6.18329E-09
 Non-SCF case, kpt  173 (  0.21333  0.21333  0.00000), residuals and eigenvalues=
  5.40E-13  7.44E-13  6.68E-13  3.29E-13  5.08E-13  8.32E-13  1.31E-10  9.13E-08
 -6.2711E-01 -3.6844E-01 -3.1671E-01 -1.7402E-01  1.3574E-01  2.5176E-01
  3.0829E-01  3.5578E-01
  prteigrs : nnsclo,ikpt=   10  173 max resid (incl. the buffer)=  9.12948E-08
 Non-SCF case, kpt  174 (  0.21000  0.21000  0.00000), residuals and eigenvalues=
  5.78E-13  7.19E-13  6.46E-13  3.61E-13  6.89E-13  7.08E-13  1.29E-10  7.09E-08
 -6.3066E-01 -3.6440E-01 -3.1287E-01 -1.7798E-01  1.4106E-01  2.4680E-01
  3.0397E-01  3.5086E-01
  prteigrs : nnsclo,ikpt=   10  174 max resid (incl. the buffer)=  7.08722E-08
 Non-SCF case, kpt  175 (  0.20667  0.20667  0.00000), residuals and eigenvalues=
  6.24E-13  6.99E-13  6.18E-13  3.96E-13  9.63E-13  6.50E-13  1.27E-10  5.74E-08
 -6.3415E-01 -3.6032E-01 -3.0901E-01 -1.8190E-01  1.4641E-01  2.4191E-01
  2.9966E-01  3.4601E-01
  prteigrs : nnsclo,ikpt=   10  175 max resid (incl. the buffer)=  5.73851E-08
[...]
 kpt# 224, nband=  8, wtk=  1.00000, kpt=  0.0433  0.0433  0.0000 (reduced coord)
 -20.12249   -8.30105   -4.20414   -3.99572    2.63957    4.38236    5.49387    7.83335
 kpt# 225, nband=  8, wtk=  1.00000, kpt=  0.0400  0.0400  0.0000 (reduced coord)
 -20.14238   -8.32487   -4.13061   -3.95277    2.61266    4.35572    5.46722    7.82080
 kpt# 226, nband=  8, wtk=  1.00000, kpt=  0.0367  0.0367  0.0000 (reduced coord)
 -20.16070   -8.34685   -4.07302   -3.91397    2.58791    4.33119    5.44271    7.80861
 kpt# 227, nband=  8, wtk=  1.00000, kpt=  0.0333  0.0333  0.0000 (reduced coord)
 -20.17749   -8.36786   -4.00943   -3.87775    2.56531    4.30863    5.42034    7.91037
 kpt# 228, nband=  8, wtk=  1.00000, kpt=  0.0300  0.0300  0.0000 (reduced coord)
 -20.19246   -8.38643   -3.95458   -3.84754    2.54488    4.28830    5.40013    7.78935
 kpt# 229, nband=  8, wtk=  1.00000, kpt=  0.0267  0.0267  0.0000 (reduced coord)
 -20.20590   -8.40251   -3.89731   -3.81212    2.52660    4.27019    5.38204    7.78556
 kpt# 230, nband=  8, wtk=  1.00000, kpt=  0.0233  0.0233  0.0000 (reduced coord)
 -20.21790   -8.41969   -3.85001   -3.78578    2.51046    4.25369    5.36606    7.76891
 kpt# 231, nband=  8, wtk=  1.00000, kpt=  0.0200  0.0200  0.0000 (reduced coord)
 -20.22818   -8.43306   -3.80557   -3.76277    2.49649    4.23965    5.35224    7.75984
 kpt# 232, nband=  8, wtk=  1.00000, kpt=  0.0167  0.0167  0.0000 (reduced coord)
 -20.23703   -8.44418   -3.77620   -3.74997    2.48464    4.22781    5.34052    7.74559
 kpt# 233, nband=  8, wtk=  1.00000, kpt=  0.0133  0.0133  0.0000 (reduced coord)
 -20.24422   -8.45280   -3.74706   -3.73407    2.47496    4.21820    5.33094    7.73896
 kpt# 234, nband=  8, wtk=  1.00000, kpt=  0.0100  0.0100  0.0000 (reduced coord)
 -20.24985   -8.45961   -3.73572   -3.72238    2.46742    4.21071    5.32348    7.74396
 kpt# 235, nband=  8, wtk=  1.00000, kpt=  0.0067  0.0067  0.0000 (reduced coord)
 -20.25385   -8.46440   -3.71946   -3.71351    2.46204    4.20537    5.31816    7.73250
 kpt# 236, nband=  8, wtk=  1.00000, kpt=  0.0033  0.0033  0.0000 (reduced coord)
 -20.25624   -8.46727   -3.70967   -3.70818    2.45881    4.20217    5.31497    7.72498
 kpt# 237, nband=  8, wtk=  1.00000, kpt=  0.0000  0.0000  0.0000 (reduced coord)
 -20.25704   -8.46823   -3.70641   -3.70641    2.45774    4.20110    5.31390    7.72233

== END DATASET(S) ==============================================================
================================================================================
  
 -outvars: echo values of variables after computation  --------
            acell      4.6394279353E+00  4.6394279353E+00  1.8601215051E+01 Bohr
              amu      1.20110000E+01
           diemac      1.20000000E+01
             ecut      1.70000000E+01 Hartree
           enunit1          0
           enunit2          1
           etotal1    -1.2036211618E+01
            fcart1    -1.1607660516E-28  1.3403371848E-28 -0.0000000000E+00
                       1.1607660516E-28 -1.3403371848E-28 -0.0000000000E+00
-          fftalg         112
           getden1          0
           getden2         -1
             iscf1          7
             iscf2         -2
           istwfk2       2    0    0    0    0    0    0    0    0    0
                         0    0    0    0    0    0    0    0    0    0
                         0    0    0    0    0    0    0    0    0    0
                         0    0    0    0    0    0    0    0    0    0
                         0    0    0    0    0    0    0    0    0    0
                       outvar_i_n : Printing only first  50 k-points.
           jdtset        1    2
              kpt1     0.00000000E+00  0.00000000E+00  1.25000000E-01
                       2.50000000E-01  0.00000000E+00  1.25000000E-01
                       5.00000000E-01  0.00000000E+00  1.25000000E-01
                       2.50000000E-01  2.50000000E-01  1.25000000E-01
                       0.00000000E+00  0.00000000E+00  3.75000000E-01
                       2.50000000E-01  0.00000000E+00  3.75000000E-01
                       5.00000000E-01  0.00000000E+00  3.75000000E-01
                       2.50000000E-01  2.50000000E-01  3.75000000E-01
              kpt2     0.00000000E+00  0.00000000E+00  0.00000000E+00
                       5.81395349E-03  0.00000000E+00  0.00000000E+00
                       1.16279070E-02  0.00000000E+00  0.00000000E+00
                       1.74418605E-02  0.00000000E+00  0.00000000E+00
                       2.32558140E-02  0.00000000E+00  0.00000000E+00
                       2.90697674E-02  0.00000000E+00  0.00000000E+00
                       3.48837209E-02  0.00000000E+00  0.00000000E+00
                       4.06976744E-02  0.00000000E+00  0.00000000E+00
                       4.65116279E-02  0.00000000E+00  0.00000000E+00
                       5.23255814E-02  0.00000000E+00  0.00000000E+00
                       5.81395349E-02  0.00000000E+00  0.00000000E+00
                       6.39534884E-02  0.00000000E+00  0.00000000E+00
                       6.97674419E-02  0.00000000E+00  0.00000000E+00
                       7.55813953E-02  0.00000000E+00  0.00000000E+00
                       8.13953488E-02  0.00000000E+00  0.00000000E+00
                       8.72093023E-02  0.00000000E+00  0.00000000E+00
                       9.30232558E-02  0.00000000E+00  0.00000000E+00
                       9.88372093E-02  0.00000000E+00  0.00000000E+00
                       1.04651163E-01  0.00000000E+00  0.00000000E+00
                       1.10465116E-01  0.00000000E+00  0.00000000E+00
                       1.16279070E-01  0.00000000E+00  0.00000000E+00
                       1.22093023E-01  0.00000000E+00  0.00000000E+00
                       1.27906977E-01  0.00000000E+00  0.00000000E+00
                       1.33720930E-01  0.00000000E+00  0.00000000E+00
                       1.39534884E-01  0.00000000E+00  0.00000000E+00
                       1.45348837E-01  0.00000000E+00  0.00000000E+00
                       1.51162791E-01  0.00000000E+00  0.00000000E+00
                       1.56976744E-01  0.00000000E+00  0.00000000E+00
                       1.62790698E-01  0.00000000E+00  0.00000000E+00
                       1.68604651E-01  0.00000000E+00  0.00000000E+00
                       1.74418605E-01  0.00000000E+00  0.00000000E+00
                       1.80232558E-01  0.00000000E+00  0.00000000E+00
                       1.86046512E-01  0.00000000E+00  0.00000000E+00
                       1.91860465E-01  0.00000000E+00  0.00000000E+00
                       1.97674419E-01  0.00000000E+00  0.00000000E+00
                       2.03488372E-01  0.00000000E+00  0.00000000E+00
                       2.09302326E-01  0.00000000E+00  0.00000000E+00
                       2.15116279E-01  0.00000000E+00  0.00000000E+00
                       2.20930233E-01  0.00000000E+00  0.00000000E+00
                       2.26744186E-01  0.00000000E+00  0.00000000E+00
                       2.32558140E-01  0.00000000E+00  0.00000000E+00
                       2.38372093E-01  0.00000000E+00  0.00000000E+00
                       2.44186047E-01  0.00000000E+00  0.00000000E+00
                       2.50000000E-01  0.00000000E+00  0.00000000E+00
                       2.55813953E-01  0.00000000E+00  0.00000000E+00
                       2.61627907E-01  0.00000000E+00  0.00000000E+00
                       2.67441860E-01  0.00000000E+00  0.00000000E+00
                       2.73255814E-01  0.00000000E+00  0.00000000E+00
                       2.79069767E-01  0.00000000E+00  0.00000000E+00
                       2.84883721E-01  0.00000000E+00  0.00000000E+00
                       outvar_i_n : Printing only first  50 k-points.
           kptopt1          1
           kptopt2         -3
         kptrlatt        4    0    0      0    4    0      0    0    4
          kptrlen1     1.85577117E+01
          kptrlen2     3.00000000E+01
P           mkmem1          8
P           mkmem2        237
            natom           2
            nband1          5
            nband2          8
           nbdbuf1          0
           nbdbuf2          2
           ndtset           2
            ngfft          18      18      72
             nkpt1          8
             nkpt2        237
            nstep          10
             nsym          24
           ntypat           1
              occ      2.000000  2.000000  2.000000  2.000000  0.000000
            rprim      1.0000000000E+00  0.0000000000E+00  0.0000000000E+00
                      -5.0000000000E-01  8.6602540378E-01  0.0000000000E+00
                       0.0000000000E+00  0.0000000000E+00  1.0000000000E+00
           shiftk1     0.00000000E+00  0.00000000E+00  5.00000000E-01
           shiftk2     5.00000000E-01  5.00000000E-01  5.00000000E-01
          spgroup         191
           strten1     4.0395863795E-04  4.0395863796E-04  3.5689888624E-04
                       0.0000000000E+00  0.0000000000E+00  0.0000000000E+00
           symrel      1  0  0   0  1  0   0  0  1      -1  0  0   0 -1  0   0  0 -1
                       0  1  0   1  0  0   0  0  1       0 -1  0  -1  0  0   0  0 -1
                       1  1  0  -1  0  0   0  0  1      -1 -1  0   1  0  0   0  0 -1
                      -1  0  0   1  1  0   0  0  1       1  0  0  -1 -1  0   0  0 -1
                       0  1  0  -1 -1  0   0  0  1       0 -1  0   1  1  0   0  0 -1
                      -1 -1  0   0  1  0   0  0  1       1  1  0   0 -1  0   0  0 -1
                      -1  0  0   0 -1  0   0  0  1       1  0  0   0  1  0   0  0 -1
                       0 -1  0  -1  0  0   0  0  1       0  1  0   1  0  0   0  0 -1
                      -1 -1  0   1  0  0   0  0  1       1  1  0  -1  0  0   0  0 -1
                       1  0  0  -1 -1  0   0  0  1      -1  0  0   1  1  0   0  0 -1
                       0 -1  0   1  1  0   0  0  1       0  1  0  -1 -1  0   0  0 -1
                       1  1  0   0 -1  0   0  0  1      -1 -1  0   0  1  0   0  0 -1
            tnons      0.0000000  0.0000000  0.0000000    -0.3333333  0.3333333  0.0000000
                      -0.3333333  0.3333333  0.0000000     0.0000000  0.0000000  0.0000000
                      -0.3333333  0.3333333  0.0000000     0.0000000  0.0000000  0.0000000
                       0.0000000  0.0000000  0.0000000    -0.3333333  0.3333333  0.0000000
                       0.0000000  0.0000000  0.0000000    -0.3333333  0.3333333  0.0000000
                      -0.3333333  0.3333333  0.0000000     0.0000000  0.0000000  0.0000000
                      -0.3333333  0.3333333  0.0000000     0.0000000  0.0000000  0.0000000
                       0.0000000  0.0000000  0.0000000    -0.3333333  0.3333333  0.0000000
                       0.0000000  0.0000000  0.0000000    -0.3333333  0.3333333  0.0000000
                      -0.3333333  0.3333333  0.0000000     0.0000000  0.0000000  0.0000000
                      -0.3333333  0.3333333  0.0000000     0.0000000  0.0000000  0.0000000
                       0.0000000  0.0000000  0.0000000    -0.3333333  0.3333333  0.0000000
           toldfe1     1.00000000E-06 Hartree
           toldfe2     0.00000000E+00 Hartree
           tolwfr1     0.00000000E+00
           tolwfr2     1.00000000E-12
            typat      1  1
              wtk1       0.03125    0.18750    0.09375    0.18750    0.03125    0.18750
                         0.09375    0.18750
              wtk2       1.00000    1.00000    1.00000    1.00000    1.00000    1.00000
                         1.00000    1.00000    1.00000    1.00000    1.00000    1.00000
                         1.00000    1.00000    1.00000    1.00000    1.00000    1.00000
                         1.00000    1.00000    1.00000    1.00000    1.00000    1.00000
                         1.00000    1.00000    1.00000    1.00000    1.00000    1.00000
                         1.00000    1.00000    1.00000    1.00000    1.00000    1.00000
                         1.00000    1.00000    1.00000    1.00000    1.00000    1.00000
                         1.00000    1.00000    1.00000    1.00000    1.00000    1.00000
                         1.00000    1.00000
                       outvars : Printing only first  50 k-points.
           xangst      0.0000000000E+00  0.0000000000E+00  0.0000000000E+00
                       1.2275397621E+00  7.0872041210E-01  0.0000000000E+00
            xcart      0.0000000000E+00  0.0000000000E+00  0.0000000000E+00
                       2.3197139676E+00  1.3392874837E+00  0.0000000000E+00
             xred      0.0000000000E+00  0.0000000000E+00  0.0000000000E+00
                       6.6666666667E-01  3.3333333333E-01  0.0000000000E+00
            znucl        6.00000

================================================================================

- Total cpu        time (s,m,h):        218.4        3.64      0.061
- Total wall clock time (s,m,h):         56.7        0.95      0.016
-
- For major independent code sections, cpu and wall times (sec),
-  as well as % of the time and number of calls for node 0-
-<BEGIN_TIMER mpi_nprocs = 1, omp_nthreads = 1, mpi_rank = 0>
- cpu_time =          218.4, wall_time =           56.7
-
- routine                        cpu     %       wall     %      number of calls  Gflops    Speedup Efficacity
-                                                                  (-1=no count)
- fourwf%(pot)                 162.632  74.5     41.529  73.2          69624      -1.00        3.92       3.92
- projbd                        25.828  11.8      6.580  11.6         105920      -1.00        3.93       3.93
- nonlop(apply)                  7.384   3.4      1.842   3.2          69624      -1.00        4.01       4.01
- vtowfk(ssdiag)                 5.424   2.5      1.443   2.5             -1      -1.00        3.76       3.76
- getghc-other                   4.124   1.9      0.988   1.7             -1      -1.00        4.17       4.17
- others (108)                   1.528   0.7      0.873   1.5             -1      -1.00        1.75       1.75
-<END_TIMER>
-
- subtotal                     206.920  94.7     53.255  93.9                                  3.89       3.89

- For major independent code sections, cpu and wall times (sec),
- as well as % of the total time and number of calls 

-<BEGIN_TIMER mpi_nprocs = 1, omp_nthreads = 1, mpi_rank = world>
- cpu_time =         218.4, wall_time =          56.7
-
- routine                         cpu     %       wall     %      number of calls Gflops    Speedup Efficacity
-                                                                  (-1=no count)
- fourwf%(pot)                 162.632  74.5     41.529  73.2          69624      -1.00        3.92       3.92
- projbd                        25.828  11.8      6.580  11.6         105920      -1.00        3.93       3.93
- nonlop(apply)                  7.384   3.4      1.842   3.2          69624      -1.00        4.01       4.01
- vtowfk(ssdiag)                 5.424   2.5      1.443   2.5             -1      -1.00        3.76       3.76
- getghc-other                   4.124   1.9      0.988   1.7             -1      -1.00        4.17       4.17
- others (108)                   1.528   0.7      0.873   1.5             -1      -1.00        1.75       1.75
-<END_TIMER>

- subtotal                     206.920  94.7     53.255  93.9                                  3.89       3.89

================================================================================

 Suggested references for the acknowledgment of ABINIT usage.

 The users of ABINIT have little formal obligations with respect to the ABINIT group
 (those specified in the GNU General Public License, http://www.gnu.org/copyleft/gpl.txt).
 However, it is common practice in the scientific literature,
 to acknowledge the efforts of people that have made the research possible.
 In this spirit, please find below suggested citations of work written by ABINIT developers,
 corresponding to implementations inside of ABINIT that you have used in the present run.
 Note also that it will be of great value to readers of publications presenting these results,
 to read papers enabling them to understand the theoretical formalism and details
 of the ABINIT implementation.
 For information on why they are suggested, see also http://www.abinit.org/about/?text=acknowledgments.
-
- [1] Recent developments in the ABINIT software package.
- Computer Phys. Comm. 205, 106 (2016).
- X.Gonze, F.Jollet, F.Abreu Araujo, D.Adams, B.Amadon, T.Applencourt,
- C.Audouze, J.-M.Beuken, J.Bieder, A.Bokhanchuk, E.Bousquet, F.Bruneval
- D.Caliste, M.Cote, F.Dahm, F.Da Pieve, M.Delaveau, M.Di Gennaro,
- B.Dorado, C.Espejo, G.Geneste, L.Genovese, A.Gerossier, M.Giantomassi,
- Y.Gillet, D.R.Hamann, L.He, G.Jomard, J.Laflamme Janssen, S.Le Roux,
- A.Levitt, A.Lherbier, F.Liu, I.Lukacevic, A.Martin, C.Martins,
- M.J.T.Oliveira, S.Ponce, Y.Pouillon, T.Rangel, G.-M.Rignanese,
- A.H.Romero, B.Rousseau, O.Rubel, A.A.Shukri, M.Stankovski, M.Torrent,
- M.J.Van Setten, B.Van Troeye, M.J.Verstraete, D.Waroquier, J.Wiktor,
- B.Xue, A.Zhou, J.W.Zwanziger.
- Comment : the fourth generic paper describing the ABINIT project.
- Note that a version of this paper, that is not formatted for Computer Phys. Comm. 
- is available at http://www.abinit.org/about/ABINIT16.pdf .
- The licence allows the authors to put it on the Web.
-
- [2] ABINIT : First-principles approach of materials and nanosystem properties.
- Computer Phys. Comm. 180, 2582-2615 (2009).
- X. Gonze, B. Amadon, P.-M. Anglade, J.-M. Beuken, F. Bottin, P. Boulanger, F. Bruneval,
- D. Caliste, R. Caracas, M. Cote, T. Deutsch, L. Genovese, Ph. Ghosez, M. Giantomassi
- S. Goedecker, D.R. Hamann, P. Hermet, F. Jollet, G. Jomard, S. Leroux, M. Mancini, S. Mazevet,
- M.J.T. Oliveira, G. Onida, Y. Pouillon, T. Rangel, G.-M. Rignanese, D. Sangalli, R. Shaltaf,
- M. Torrent, M.J. Verstraete, G. Zerah, J.W. Zwanziger
- Comment : the third generic paper describing the ABINIT project.
- Note that a version of this paper, that is not formatted for Computer Phys. Comm. 
- is available at http://www.abinit.org/about/ABINIT_CPC_v10.pdf .
- The licence allows the authors to put it on the Web.
-
- [3] A brief introduction to the ABINIT software package.
- Z. Kristallogr. 220, 558-562 (2005).
- X. Gonze, G.-M. Rignanese, M. Verstraete, J.-M. Beuken, Y. Pouillon, R. Caracas, F. Jollet,
- M. Torrent, G. Zerah, M. Mikami, Ph. Ghosez, M. Veithen, J.-Y. Raty, V. Olevano, F. Bruneval,
- L. Reining, R. Godby, G. Onida, D.R. Hamann, and D.C. Allan.
- Comment : the second generic paper describing the ABINIT project. Note that this paper
- should be cited especially if you are using the GW part of ABINIT, as several authors
- of this part are not in the list of authors of the first or third paper.
- The .pdf of the latter paper is available at http://www.abinit.org/about/zfk_0505-06_558-562.pdf.
- Note that it should not redistributed (Copyright by Oldenburg Wissenshaftverlag,
- the licence allows the authors to put it on the Web).
-
- And optionally:
-
- [4] First-principles computation of material properties : the ABINIT software project. 
- X. Gonze, J.-M. Beuken, R. Caracas, F. Detraux, M. Fuchs, G.-M. Rignanese, L. Sindic,
- M. Verstraete, G. Zerah, F. Jollet, M. Torrent, A. Roy, M. Mikami, Ph. Ghosez, J.-Y. Raty, D.C. Allan.
- Computational Materials Science 25, 478-492 (2002). http://dx.doi.org/10.1016/S0927-0256(02)00325-7
- Comment : the original paper describing the ABINIT project.
-
- Proc.   0 individual time (sec): cpu=        218.4  wall=         56.7

================================================================================

 Calculation completed.
.Delivered  36 WARNINGs and   2 COMMENTs to log file.
+Overall time at end (sec) : cpu=        218.4  wall=         56.7
