
.Version 8.4.1 of ABINIT 
.(sequential version, prepared for a x86_64_linux_gnu7.0 computer) 

.Copyright (C) 1998-2017 ABINIT group . 
 ABINIT comes with ABSOLUTELY NO WARRANTY.
 It is free software, and you are welcome to redistribute it
 under certain conditions (GNU General Public License,
 see ~abinit/COPYING or http://www.gnu.org/copyleft/gpl.txt).

 ABINIT is a project of the Universite Catholique de Louvain,
 Corning Inc. and other collaborators, see ~abinit/doc/developers/contributors.txt .
 Please read ~abinit/doc/users/acknowledgments.html for suggested
 acknowledgments of the ABINIT effort.
 For more information, see http://www.abinit.org .

.Starting date : Mon  7 Aug 2017.
- ( at 11h11 )
  
- input  file    -> graphene.in
- output file    -> graphene.out
- root for input  files -> graphene_xi
- root for output files -> graphene_xo


 Symmetries : space group P6/m m m (#191); Bravais hP (primitive hexag.)
================================================================================
 Values of the parameters that define the memory need of the present run
     intxc =       0    ionmov =       0      iscf =       7    lmnmax =       1
     lnmax =       1     mgfft =      27  mpssoang =       2    mqgrid =    3001
     natom =       2  nloc_mem =       1    nspden =       1   nspinor =       1
    nsppol =       1      nsym =      24    n1xccc =    2501    ntypat =       1
    occopt =       1   xclevel =       1
-    mband =           5        mffmem =           1         mkmem =           2
       mpw =          67          nfft =        1728          nkpt =           2
================================================================================
P This job should need less than                       1.012 Mbytes of memory.
  Rough estimation (10% accuracy) of disk space for files :
_ WF disk file :      0.012 Mbytes ; DEN or POT disk file :      0.015 Mbytes.
================================================================================

--------------------------------------------------------------------------------
------------- Echo of variables that govern the present computation ------------
--------------------------------------------------------------------------------
-
- outvars: echo of selected default values                                      
-   iomode0 =  0 , fftalg0 =112 , wfoptalg0 =  0
-
- outvars: echo of global parameters not present in the input file              
-  max_nthreads =    0
-
 -outvars: echo values of preprocessed input variables --------
            acell      2.4941531629E+00  2.4941531629E+00  1.0000000000E+01 Bohr
              amu      1.20110000E+01
           diemac      1.20000000E+01
             ecut      8.00000000E+00 Hartree
-          fftalg         112
              kpt      0.00000000E+00  0.00000000E+00  2.50000000E-01
                       5.00000000E-01  0.00000000E+00  2.50000000E-01
         kptrlatt        2    0    0      0    2    0      0    0    2
          kptrlen      4.98830633E+00
P           mkmem           2
            natom           2
            nband           5
            ngfft           8       8      27
             nkpt           2
            nstep          10
             nsym          24
           ntypat           1
              occ      2.000000  2.000000  2.000000  2.000000  0.000000
            rprim      1.0000000000E+00  0.0000000000E+00  0.0000000000E+00
                      -5.0000000000E-01  8.6602540378E-01  0.0000000000E+00
                       0.0000000000E+00  0.0000000000E+00  1.0000000000E+00
           shiftk      0.00000000E+00  0.00000000E+00  5.00000000E-01
          spgroup         191
           symrel      1  0  0   0  1  0   0  0  1      -1  0  0   0 -1  0   0  0 -1
                       0  1  0   1  0  0   0  0  1       0 -1  0  -1  0  0   0  0 -1
                       1  1  0  -1  0  0   0  0  1      -1 -1  0   1  0  0   0  0 -1
                      -1  0  0   1  1  0   0  0  1       1  0  0  -1 -1  0   0  0 -1
                       0  1  0  -1 -1  0   0  0  1       0 -1  0   1  1  0   0  0 -1
                      -1 -1  0   0  1  0   0  0  1       1  1  0   0 -1  0   0  0 -1
                      -1  0  0   0 -1  0   0  0  1       1  0  0   0  1  0   0  0 -1
                       0 -1  0  -1  0  0   0  0  1       0  1  0   1  0  0   0  0 -1
                      -1 -1  0   1  0  0   0  0  1       1  1  0  -1  0  0   0  0 -1
                       1  0  0  -1 -1  0   0  0  1      -1  0  0   1  1  0   0  0 -1
                       0 -1  0   1  1  0   0  0  1       0  1  0  -1 -1  0   0  0 -1
                       1  1  0   0 -1  0   0  0  1      -1 -1  0   0  1  0   0  0 -1
            tnons      0.0000000  0.0000000  0.0000000    -0.3333333  0.3333333  0.0000000
                      -0.3333333  0.3333333  0.0000000     0.0000000  0.0000000  0.0000000
                      -0.3333333  0.3333333  0.0000000     0.0000000  0.0000000  0.0000000
                       0.0000000  0.0000000  0.0000000    -0.3333333  0.3333333  0.0000000
                       0.0000000  0.0000000  0.0000000    -0.3333333  0.3333333  0.0000000
                      -0.3333333  0.3333333  0.0000000     0.0000000  0.0000000  0.0000000
                      -0.3333333  0.3333333  0.0000000     0.0000000  0.0000000  0.0000000
                       0.0000000  0.0000000  0.0000000    -0.3333333  0.3333333  0.0000000
                       0.0000000  0.0000000  0.0000000    -0.3333333  0.3333333  0.0000000
                      -0.3333333  0.3333333  0.0000000     0.0000000  0.0000000  0.0000000
                      -0.3333333  0.3333333  0.0000000     0.0000000  0.0000000  0.0000000
                       0.0000000  0.0000000  0.0000000    -0.3333333  0.3333333  0.0000000
           toldfe      1.00000000E-06 Hartree
            typat      1  1
              wtk        0.25000    0.75000
           xangst      0.0000000000E+00  0.0000000000E+00  0.0000000000E+00
                       6.5992450427E-01  3.8100759018E-01  0.0000000000E+00
            xcart      0.0000000000E+00  0.0000000000E+00  0.0000000000E+00
                       1.2470765815E+00  7.2000000000E-01  0.0000000000E+00
             xred      0.0000000000E+00  0.0000000000E+00  0.0000000000E+00
                       6.6666666667E-01  3.3333333333E-01  0.0000000000E+00
            znucl        6.00000

================================================================================

 chkinp: Checking input parameters for consistency.

================================================================================
== DATASET  1 ==================================================================
-   nproc =    1

 Exchange-correlation functional for the present dataset will be:
  LDA: new Teter (4/93) with spin-polarized option - ixc=1
 Citation for XC functional:
  S. Goedecker, M. Teter, J. Huetter, PRB 54, 1703 (1996)

 Real(R)+Recip(G) space primitive vectors, cartesian coordinates (Bohr,Bohr^-1):
 R(1)=  2.4941532  0.0000000  0.0000000  G(1)=  0.4009377  0.2314815  0.0000000
 R(2)= -1.2470766  2.1600000  0.0000000  G(2)=  0.0000000  0.4629630  0.0000000
 R(3)=  0.0000000  0.0000000 10.0000000  G(3)=  0.0000000  0.0000000  0.1000000
 Unit cell volume ucvol=  5.3873708E+01 bohr^3
 Angles (23,13,12)=  9.00000000E+01  9.00000000E+01  1.20000000E+02 degrees

 getcut: wavevector=  0.0000  0.0000  0.0000  ngfft=   8   8  27
         ecut(hartree)=      8.000   => boxcut(ratio)=   2.04204

--- Pseudopotential description ------------------------------------------------
- pspini: atom type   1  psp file is ./6c.pspnc
- pspatm: opening atomic psp file    ./6c.pspnc
-  Troullier-Martins psp for element  C         Thu Oct 27 17:29:33 EDT 1994
-  6.00000   4.00000    940714                znucl, zion, pspdat
    1    1    1    1      2001   0.00000      pspcod,pspxc,lmax,lloc,mmax,r2well
    0  10.372  24.987    1   1.4850707        l,e99.0,e99.9,nproj,rcpsp
   0.00000000   0.00000000   0.00000000   0.00000000     rms, ekb1, ekb2, epsatm
    1  15.431  21.987    0   1.4850707        l,e99.0,e99.9,nproj,rcpsp
   0.00000000   0.00000000   0.00000000   0.00000000     rms, ekb1, ekb2, epsatm
    0.83985002509544    0.99012430797080    0.51184907750884   rchrg,fchrg,qchrg
 pspatm: epsatm=    0.92590353
         --- l  ekb(1:nproj) -->
             0    4.921466
 pspatm: atomic psp has been read  and splines computed

   1.48144565E+01                                ecore*ucvol(ha*bohr**3)
--------------------------------------------------------------------------------

_setup2: Arith. and geom. avg. npw (full set) are      58.750      58.568

================================================================================

     iter   Etot(hartree)      deltaE(h)  residm     vres2
 ETOT  1  -5.7786267940897    -5.779E+00 1.838E-01 4.777E+01
 ETOT  2  -5.9379678229674    -1.593E-01 5.439E-01 2.026E+02
 ETOT  3  -5.9968314620551    -5.886E-02 4.724E-03 1.782E+02
 ETOT  4  -5.7246263997455     2.722E-01 7.089E-03 4.908E+02
 ETOT  5  -6.0368072917336    -3.122E-01 2.561E-03 3.246E+01
 ETOT  6  -6.0377458963214    -9.386E-04 1.730E-05 2.893E+01
 ETOT  7  -6.0440621153897    -6.316E-03 4.547E-03 5.432E+00
 ETOT  8  -6.0456597462349    -1.598E-03 9.000E-05 5.494E-02
 ETOT  9  -6.0456333396242     2.641E-05 6.484E-06 1.238E-01
 ETOT 10  -6.0456178059427     1.553E-05 1.319E-07 1.829E-01

 Cartesian components of stress tensor (hartree/bohr^3)
  sigma(1 1)= -1.90752450E-01  sigma(3 2)=  0.00000000E+00
  sigma(2 2)= -1.90752450E-01  sigma(3 1)=  0.00000000E+00
  sigma(3 3)=  4.76125880E-02  sigma(2 1)=  0.00000000E+00


 scprqt:  WARNING -
  nstep=   10 was not enough SCF cycles to converge;
  maximum energy difference=  1.553E-05 exceeds toldfe=  1.000E-06

 Integrated electronic density in atomic spheres:
 ------------------------------------------------
 Atom  Sphere_radius  Integrated_density
    1        2.00000         15.26900728
    2        2.00000         14.77752452
================================================================================

 ----iterations are completed or convergence reached----

 Mean square residual over all n,k,spin=   1.5452E-08; max=  1.3189E-07
 reduced coordinates (array xred) for    2 atoms
       0.000000000000      0.000000000000      0.000000000000
       0.666666666667      0.333333333333      0.000000000000
 rms dE/dt=  1.5854E-27; max dE/dt=  2.1541E-27; dE/dt below (all hartree)
    1       0.000000000000     -0.000000000000      0.000000000000
    2      -0.000000000000      0.000000000000      0.000000000000

 cartesian coordinates (angstrom) at end:
    1      0.00000000000000     0.00000000000000     0.00000000000000
    2      0.65992450426967     0.38100759018297     0.00000000000000

 cartesian forces (hartree/bohr) at end:
    1     -0.00000000000000     0.00000000000000    -0.00000000000000
    2      0.00000000000000    -0.00000000000000    -0.00000000000000
 frms,max,avg= 5.1899889E-28 6.4774977E-28   0.000E+00  0.000E+00  0.000E+00 h/b

 cartesian forces (eV/Angstrom) at end:
    1     -0.00000000000000     0.00000000000000    -0.00000000000000
    2      0.00000000000000    -0.00000000000000    -0.00000000000000
 frms,max,avg= 2.6687994E-26 3.3308630E-26   0.000E+00  0.000E+00  0.000E+00 e/A
 length scales=  2.494153162900  2.494153162900 10.000000000000 bohr
              =  1.319849008539  1.319849008539  5.291772085900 angstroms
 prteigrs : about to open file graphene_xo_EIG
 Fermi (or HOMO) energy (hartree) =   0.56363   Average Vxc (hartree)=  -0.44595
 Eigenvalues (hartree) for nkpt=   2  k points:
 kpt#   1, nband=  5, wtk=  0.25000, kpt=  0.0000  0.0000  0.2500 (reduced coord)
  -1.08978   -0.77123    0.49604    0.56363    0.56363
 prteigrs : prtvol=0 or 1, do not print more k-points.


--------------------------------------------------------------------------------
 Components of total free energy (in Hartree) :

    Kinetic energy  =  1.69007212544497E+01
    Hartree energy  =  3.06910252012338E+01
    XC energy       = -6.06593830323241E+00
    Ewald energy    =  2.52791613474037E+01
    PspCore energy  =  2.74984903331280E-01
    Loc. psp. energy= -7.75540976372724E+01
    NL   psp  energy=  4.42852542814358E+00
    >>>>>>>>> Etotal= -6.04561780594272E+00

 Other information on the energy :
    Total energy(eV)= -1.64509626788358E+02 ; Band energy (Ha)=  -1.6241470921E+00
--------------------------------------------------------------------------------

 Cartesian components of stress tensor (hartree/bohr^3)
  sigma(1 1)= -1.90752450E-01  sigma(3 2)=  0.00000000E+00
  sigma(2 2)= -1.90752450E-01  sigma(3 1)=  0.00000000E+00
  sigma(3 3)=  4.76125880E-02  sigma(2 1)=  0.00000000E+00

-Cartesian components of stress tensor (GPa)         [Pressure=  3.2745E+03 GPa]
- sigma(1 1)= -5.61212989E+03  sigma(3 2)=  0.00000000E+00
- sigma(2 2)= -5.61212989E+03  sigma(3 1)=  0.00000000E+00
- sigma(3 3)=  1.40081047E+03  sigma(2 1)=  0.00000000E+00

== END DATASET(S) ==============================================================
================================================================================
  
 -outvars: echo values of variables after computation  --------
            acell      2.4941531629E+00  2.4941531629E+00  1.0000000000E+01 Bohr
              amu      1.20110000E+01
           diemac      1.20000000E+01
             ecut      8.00000000E+00 Hartree
           etotal     -6.0456178059E+00
            fcart     -6.4774976851E-28  6.2329750536E-28 -0.0000000000E+00
                       6.4774976851E-28 -6.2329750536E-28 -0.0000000000E+00
-          fftalg         112
              kpt      0.00000000E+00  0.00000000E+00  2.50000000E-01
                       5.00000000E-01  0.00000000E+00  2.50000000E-01
         kptrlatt        2    0    0      0    2    0      0    0    2
          kptrlen      4.98830633E+00
P           mkmem           2
            natom           2
            nband           5
            ngfft           8       8      27
             nkpt           2
            nstep          10
             nsym          24
           ntypat           1
              occ      2.000000  2.000000  2.000000  2.000000  0.000000
            rprim      1.0000000000E+00  0.0000000000E+00  0.0000000000E+00
                      -5.0000000000E-01  8.6602540378E-01  0.0000000000E+00
                       0.0000000000E+00  0.0000000000E+00  1.0000000000E+00
           shiftk      0.00000000E+00  0.00000000E+00  5.00000000E-01
          spgroup         191
           strten     -1.9075245009E-01 -1.9075245009E-01  4.7612587975E-02
                       0.0000000000E+00  0.0000000000E+00  0.0000000000E+00
           symrel      1  0  0   0  1  0   0  0  1      -1  0  0   0 -1  0   0  0 -1
                       0  1  0   1  0  0   0  0  1       0 -1  0  -1  0  0   0  0 -1
                       1  1  0  -1  0  0   0  0  1      -1 -1  0   1  0  0   0  0 -1
                      -1  0  0   1  1  0   0  0  1       1  0  0  -1 -1  0   0  0 -1
                       0  1  0  -1 -1  0   0  0  1       0 -1  0   1  1  0   0  0 -1
                      -1 -1  0   0  1  0   0  0  1       1  1  0   0 -1  0   0  0 -1
                      -1  0  0   0 -1  0   0  0  1       1  0  0   0  1  0   0  0 -1
                       0 -1  0  -1  0  0   0  0  1       0  1  0   1  0  0   0  0 -1
                      -1 -1  0   1  0  0   0  0  1       1  1  0  -1  0  0   0  0 -1
                       1  0  0  -1 -1  0   0  0  1      -1  0  0   1  1  0   0  0 -1
                       0 -1  0   1  1  0   0  0  1       0  1  0  -1 -1  0   0  0 -1
                       1  1  0   0 -1  0   0  0  1      -1 -1  0   0  1  0   0  0 -1
            tnons      0.0000000  0.0000000  0.0000000    -0.3333333  0.3333333  0.0000000
                      -0.3333333  0.3333333  0.0000000     0.0000000  0.0000000  0.0000000
                      -0.3333333  0.3333333  0.0000000     0.0000000  0.0000000  0.0000000
                       0.0000000  0.0000000  0.0000000    -0.3333333  0.3333333  0.0000000
                       0.0000000  0.0000000  0.0000000    -0.3333333  0.3333333  0.0000000
                      -0.3333333  0.3333333  0.0000000     0.0000000  0.0000000  0.0000000
                      -0.3333333  0.3333333  0.0000000     0.0000000  0.0000000  0.0000000
                       0.0000000  0.0000000  0.0000000    -0.3333333  0.3333333  0.0000000
                       0.0000000  0.0000000  0.0000000    -0.3333333  0.3333333  0.0000000
                      -0.3333333  0.3333333  0.0000000     0.0000000  0.0000000  0.0000000
                      -0.3333333  0.3333333  0.0000000     0.0000000  0.0000000  0.0000000
                       0.0000000  0.0000000  0.0000000    -0.3333333  0.3333333  0.0000000
           toldfe      1.00000000E-06 Hartree
            typat      1  1
              wtk        0.25000    0.75000
           xangst      0.0000000000E+00  0.0000000000E+00  0.0000000000E+00
                       6.5992450427E-01  3.8100759018E-01  0.0000000000E+00
            xcart      0.0000000000E+00  0.0000000000E+00  0.0000000000E+00
                       1.2470765815E+00  7.2000000000E-01  0.0000000000E+00
             xred      0.0000000000E+00  0.0000000000E+00  0.0000000000E+00
                       6.6666666667E-01  3.3333333333E-01  0.0000000000E+00
            znucl        6.00000

================================================================================

- Total cpu        time (s,m,h):          1.4        0.02      0.000
- Total wall clock time (s,m,h):          1.2        0.02      0.000
-
- For major independent code sections, cpu and wall times (sec),
-  as well as % of the time and number of calls for node 0-
-<BEGIN_TIMER mpi_nprocs = 1, omp_nthreads = 1, mpi_rank = 0>
- cpu_time =            1.4, wall_time =            1.2
-
- routine                        cpu     %       wall     %      number of calls  Gflops    Speedup Efficacity
-                                                                  (-1=no count)
- pspini                         0.296  20.6      0.316  26.4              1      -1.00        0.94       0.94
- abinit(2)                      0.212  14.7      0.138  11.5              1      -1.00        1.54       1.54
- timing timab                   0.124   8.6      0.123  10.3             10      -1.00        1.01       1.01
- stress                         0.084   5.8      0.021   1.8              1      -1.00        4.00       4.00
- ewald2 (+vdw_dftd)             0.080   5.6      0.021   1.8              1      -1.00        3.81       3.81
- vtowfk(ssdiag)                 0.080   5.6      0.056   4.7             -1      -1.00        1.43       1.43
- fourwf%(pot)                   0.052   3.6      0.020   1.7            546      -1.00        2.60       2.60
- projbd                         0.040   2.8      0.013   1.1            852      -1.00        3.08       3.08
- ewald                          0.020   1.4      0.019   1.6              1      -1.00        1.05       1.05
- invars2                        0.016   1.1      0.025   2.1              1      -1.00        0.64       0.64
- nonlop(apply)                  0.012   0.8      0.006   0.5            546      -1.00        2.00       2.00
- others (102)                   0.056   3.9      0.018   1.5             -1      -1.00        3.11       3.11
-<END_TIMER>
-
- subtotal                       1.072  74.4      0.776  64.9                                  1.38       1.38

- For major independent code sections, cpu and wall times (sec),
- as well as % of the total time and number of calls 

-<BEGIN_TIMER mpi_nprocs = 1, omp_nthreads = 1, mpi_rank = world>
- cpu_time =           1.4, wall_time =           1.2
-
- routine                         cpu     %       wall     %      number of calls Gflops    Speedup Efficacity
-                                                                  (-1=no count)
- pspini                         0.296  20.6      0.316  26.4              1      -1.00        0.94       0.94
- abinit(2)                      0.212  14.7      0.138  11.5              1      -1.00        1.54       1.54
- timing timab                   0.124   8.6      0.123  10.3             10      -1.00        1.01       1.01
- stress                         0.084   5.8      0.021   1.8              1      -1.00        4.00       4.00
- ewald2 (+vdw_dftd)             0.080   5.6      0.021   1.8              1      -1.00        3.81       3.81
- vtowfk(ssdiag)                 0.080   5.6      0.056   4.7             -1      -1.00        1.43       1.43
- fourwf%(pot)                   0.052   3.6      0.020   1.7            546      -1.00        2.60       2.60
- projbd                         0.040   2.8      0.013   1.1            852      -1.00        3.08       3.08
- ewald                          0.020   1.4      0.019   1.6              1      -1.00        1.05       1.05
- invars2                        0.016   1.1      0.025   2.1              1      -1.00        0.64       0.64
- nonlop(apply)                  0.012   0.8      0.006   0.5            546      -1.00        2.00       2.00
- others (102)                   0.056   3.9      0.018   1.5             -1      -1.00        3.11       3.11
-<END_TIMER>

- subtotal                       1.072  74.4      0.776  64.9                                  1.38       1.38

================================================================================

 Suggested references for the acknowledgment of ABINIT usage.

 The users of ABINIT have little formal obligations with respect to the ABINIT group
 (those specified in the GNU General Public License, http://www.gnu.org/copyleft/gpl.txt).
 However, it is common practice in the scientific literature,
 to acknowledge the efforts of people that have made the research possible.
 In this spirit, please find below suggested citations of work written by ABINIT developers,
 corresponding to implementations inside of ABINIT that you have used in the present run.
 Note also that it will be of great value to readers of publications presenting these results,
 to read papers enabling them to understand the theoretical formalism and details
 of the ABINIT implementation.
 For information on why they are suggested, see also http://www.abinit.org/about/?text=acknowledgments.
-
- [1] Recent developments in the ABINIT software package.
- Computer Phys. Comm. 205, 106 (2016).
- X.Gonze, F.Jollet, F.Abreu Araujo, D.Adams, B.Amadon, T.Applencourt,
- C.Audouze, J.-M.Beuken, J.Bieder, A.Bokhanchuk, E.Bousquet, F.Bruneval
- D.Caliste, M.Cote, F.Dahm, F.Da Pieve, M.Delaveau, M.Di Gennaro,
- B.Dorado, C.Espejo, G.Geneste, L.Genovese, A.Gerossier, M.Giantomassi,
- Y.Gillet, D.R.Hamann, L.He, G.Jomard, J.Laflamme Janssen, S.Le Roux,
- A.Levitt, A.Lherbier, F.Liu, I.Lukacevic, A.Martin, C.Martins,
- M.J.T.Oliveira, S.Ponce, Y.Pouillon, T.Rangel, G.-M.Rignanese,
- A.H.Romero, B.Rousseau, O.Rubel, A.A.Shukri, M.Stankovski, M.Torrent,
- M.J.Van Setten, B.Van Troeye, M.J.Verstraete, D.Waroquier, J.Wiktor,
- B.Xue, A.Zhou, J.W.Zwanziger.
- Comment : the fourth generic paper describing the ABINIT project.
- Note that a version of this paper, that is not formatted for Computer Phys. Comm. 
- is available at http://www.abinit.org/about/ABINIT16.pdf .
- The licence allows the authors to put it on the Web.
-
- [2] ABINIT : First-principles approach of materials and nanosystem properties.
- Computer Phys. Comm. 180, 2582-2615 (2009).
- X. Gonze, B. Amadon, P.-M. Anglade, J.-M. Beuken, F. Bottin, P. Boulanger, F. Bruneval,
- D. Caliste, R. Caracas, M. Cote, T. Deutsch, L. Genovese, Ph. Ghosez, M. Giantomassi
- S. Goedecker, D.R. Hamann, P. Hermet, F. Jollet, G. Jomard, S. Leroux, M. Mancini, S. Mazevet,
- M.J.T. Oliveira, G. Onida, Y. Pouillon, T. Rangel, G.-M. Rignanese, D. Sangalli, R. Shaltaf,
- M. Torrent, M.J. Verstraete, G. Zerah, J.W. Zwanziger
- Comment : the third generic paper describing the ABINIT project.
- Note that a version of this paper, that is not formatted for Computer Phys. Comm. 
- is available at http://www.abinit.org/about/ABINIT_CPC_v10.pdf .
- The licence allows the authors to put it on the Web.
-
- [3] A brief introduction to the ABINIT software package.
- Z. Kristallogr. 220, 558-562 (2005).
- X. Gonze, G.-M. Rignanese, M. Verstraete, J.-M. Beuken, Y. Pouillon, R. Caracas, F. Jollet,
- M. Torrent, G. Zerah, M. Mikami, Ph. Ghosez, M. Veithen, J.-Y. Raty, V. Olevano, F. Bruneval,
- L. Reining, R. Godby, G. Onida, D.R. Hamann, and D.C. Allan.
- Comment : the second generic paper describing the ABINIT project. Note that this paper
- should be cited especially if you are using the GW part of ABINIT, as several authors
- of this part are not in the list of authors of the first or third paper.
- The .pdf of the latter paper is available at http://www.abinit.org/about/zfk_0505-06_558-562.pdf.
- Note that it should not redistributed (Copyright by Oldenburg Wissenshaftverlag,
- the licence allows the authors to put it on the Web).
-
- And optionally:
-
- [4] First-principles computation of material properties : the ABINIT software project. 
- X. Gonze, J.-M. Beuken, R. Caracas, F. Detraux, M. Fuchs, G.-M. Rignanese, L. Sindic,
- M. Verstraete, G. Zerah, F. Jollet, M. Torrent, A. Roy, M. Mikami, Ph. Ghosez, J.-Y. Raty, D.C. Allan.
- Computational Materials Science 25, 478-492 (2002). http://dx.doi.org/10.1016/S0927-0256(02)00325-7
- Comment : the original paper describing the ABINIT project.
-
- Proc.   0 individual time (sec): cpu=          1.4  wall=          1.2

================================================================================

 Calculation completed.
.Delivered   3 WARNINGs and   2 COMMENTs to log file.
+Overall time at end (sec) : cpu=          1.4  wall=          1.2
