
.Version 8.4.1 of ABINIT 
.(sequential version, prepared for a x86_64_linux_gnu7.0 computer) 

.Copyright (C) 1998-2017 ABINIT group . 
 ABINIT comes with ABSOLUTELY NO WARRANTY.
 It is free software, and you are welcome to redistribute it
 under certain conditions (GNU General Public License,
 see ~abinit/COPYING or http://www.gnu.org/copyleft/gpl.txt).

 ABINIT is a project of the Universite Catholique de Louvain,
 Corning Inc. and other collaborators, see ~abinit/doc/developers/contributors.txt .
 Please read ~abinit/doc/users/acknowledgments.html for suggested
 acknowledgments of the ABINIT effort.
 For more information, see http://www.abinit.org .

.Starting date : Mon  7 Aug 2017.
- ( at 11h20 )
  
- input  file    -> graphene.in
- output file    -> graphene.out
- root for input  files -> graphene_xi
- root for output files -> graphene_xo


 DATASET    1 : space group P6/m m m (#191); Bravais hP (primitive hexag.)
================================================================================
 Values of the parameters that define the memory need for DATASET  1.
     intxc =       0    ionmov =       0      iscf =       7    lmnmax =       1
     lnmax =       1     mgfft =      48  mpssoang =       2    mqgrid =    3001
     natom =       2  nloc_mem =       1    nspden =       1   nspinor =       1
    nsppol =       1      nsym =      24    n1xccc =    2501    ntypat =       1
    occopt =       1   xclevel =       1
-    mband =           5        mffmem =           1         mkmem =           2
       mpw =         330          nfft =        6912          nkpt =           2
================================================================================
P This job should need less than                       2.551 Mbytes of memory.
  Rough estimation (10% accuracy) of disk space for files :
_ WF disk file :      0.052 Mbytes ; DEN or POT disk file :      0.055 Mbytes.
================================================================================


 DATASET    2 : space group P6/m m m (#191); Bravais hP (primitive hexag.)
================================================================================
 Values of the parameters that define the memory need for DATASET  2.
     intxc =       0    ionmov =       0      iscf =       7    lmnmax =       1
     lnmax =       1     mgfft =      54  mpssoang =       2    mqgrid =    3001
     natom =       2  nloc_mem =       1    nspden =       1   nspinor =       1
    nsppol =       1      nsym =      24    n1xccc =    2501    ntypat =       1
    occopt =       1   xclevel =       1
-    mband =           5        mffmem =           1         mkmem =           2
       mpw =         482          nfft =       12150          nkpt =           2
================================================================================
P This job should need less than                       4.007 Mbytes of memory.
  Rough estimation (10% accuracy) of disk space for files :
_ WF disk file :      0.076 Mbytes ; DEN or POT disk file :      0.095 Mbytes.
================================================================================


 DATASET    3 : space group P6/m m m (#191); Bravais hP (primitive hexag.)
================================================================================
 Values of the parameters that define the memory need for DATASET  3.
     intxc =       0    ionmov =       0      iscf =       7    lmnmax =       1
     lnmax =       1     mgfft =      60  mpssoang =       2    mqgrid =    3001
     natom =       2  nloc_mem =       1    nspden =       1   nspinor =       1
    nsppol =       1      nsym =      24    n1xccc =    2501    ntypat =       1
    occopt =       1   xclevel =       1
-    mband =           5        mffmem =           1         mkmem =           2
       mpw =         652          nfft =       15360          nkpt =           2
================================================================================
P This job should need less than                       5.009 Mbytes of memory.
  Rough estimation (10% accuracy) of disk space for files :
_ WF disk file :      0.101 Mbytes ; DEN or POT disk file :      0.119 Mbytes.
================================================================================


 DATASET    4 : space group P6/m m m (#191); Bravais hP (primitive hexag.)
================================================================================
 Values of the parameters that define the memory need for DATASET  4.
     intxc =       0    ionmov =       0      iscf =       7    lmnmax =       1
     lnmax =       1     mgfft =      64  mpssoang =       2    mqgrid =    3068
     natom =       2  nloc_mem =       1    nspden =       1   nspinor =       1
    nsppol =       1      nsym =      24    n1xccc =    2501    ntypat =       1
    occopt =       1   xclevel =       1
-    mband =           5        mffmem =           1         mkmem =           2
       mpw =         820          nfft =       16384          nkpt =           2
================================================================================
P This job should need less than                       5.357 Mbytes of memory.
  Rough estimation (10% accuracy) of disk space for files :
_ WF disk file :      0.127 Mbytes ; DEN or POT disk file :      0.127 Mbytes.
================================================================================


 DATASET    5 : space group P6/m m m (#191); Bravais hP (primitive hexag.)
================================================================================
 Values of the parameters that define the memory need for DATASET  5.
     intxc =       0    ionmov =       0      iscf =       7    lmnmax =       1
     lnmax =       1     mgfft =      72  mpssoang =       2    mqgrid =    3295
     natom =       2  nloc_mem =       1    nspden =       1   nspinor =       1
    nsppol =       1      nsym =      24    n1xccc =    2501    ntypat =       1
    occopt =       1   xclevel =       1
-    mband =           5        mffmem =           1         mkmem =           2
       mpw =        1026          nfft =       23328          nkpt =           2
================================================================================
P This job should need less than                       7.364 Mbytes of memory.
  Rough estimation (10% accuracy) of disk space for files :
_ WF disk file :      0.159 Mbytes ; DEN or POT disk file :      0.180 Mbytes.
================================================================================


 DATASET    6 : space group P6/m m m (#191); Bravais hP (primitive hexag.)
================================================================================
 Values of the parameters that define the memory need for DATASET  6.
     intxc =       0    ionmov =       0      iscf =       7    lmnmax =       1
     lnmax =       1     mgfft =      72  mpssoang =       2    mqgrid =    3508
     natom =       2  nloc_mem =       1    nspden =       1   nspinor =       1
    nsppol =       1      nsym =      24    n1xccc =    2501    ntypat =       1
    occopt =       1   xclevel =       1
-    mband =           5        mffmem =           1         mkmem =           2
       mpw =        1247          nfft =       23328          nkpt =           2
================================================================================
P This job should need less than                       7.451 Mbytes of memory.
  Rough estimation (10% accuracy) of disk space for files :
_ WF disk file :      0.192 Mbytes ; DEN or POT disk file :      0.180 Mbytes.
================================================================================


 DATASET    7 : space group P6/m m m (#191); Bravais hP (primitive hexag.)
================================================================================
 Values of the parameters that define the memory need for DATASET  7.
     intxc =       0    ionmov =       0      iscf =       7    lmnmax =       1
     lnmax =       1     mgfft =      80  mpssoang =       2    mqgrid =    3709
     natom =       2  nloc_mem =       1    nspden =       1   nspinor =       1
    nsppol =       1      nsym =      24    n1xccc =    2501    ntypat =       1
    occopt =       1   xclevel =       1
-    mband =           5        mffmem =           1         mkmem =           2
       mpw =        1447          nfft =       32000          nkpt =           2
================================================================================
P This job should need less than                       9.931 Mbytes of memory.
  Rough estimation (10% accuracy) of disk space for files :
_ WF disk file :      0.223 Mbytes ; DEN or POT disk file :      0.246 Mbytes.
================================================================================


 DATASET    8 : space group P6/m m m (#191); Bravais hP (primitive hexag.)
================================================================================
 Values of the parameters that define the memory need for DATASET  8.
     intxc =       0    ionmov =       0      iscf =       7    lmnmax =       1
     lnmax =       1     mgfft =      80  mpssoang =       2    mqgrid =    3899
     natom =       2  nloc_mem =       1    nspden =       1   nspinor =       1
    nsppol =       1      nsym =      24    n1xccc =    2501    ntypat =       1
    occopt =       1   xclevel =       1
-    mband =           5        mffmem =           1         mkmem =           2
       mpw =        1674          nfft =       32000          nkpt =           2
================================================================================
P This job should need less than                      10.019 Mbytes of memory.
  Rough estimation (10% accuracy) of disk space for files :
_ WF disk file :      0.257 Mbytes ; DEN or POT disk file :      0.246 Mbytes.
================================================================================


 DATASET    9 : space group P6/m m m (#191); Bravais hP (primitive hexag.)
================================================================================
 Values of the parameters that define the memory need for DATASET  9.
     intxc =       0    ionmov =       0      iscf =       7    lmnmax =       1
     lnmax =       1     mgfft =      90  mpssoang =       2    mqgrid =    4080
     natom =       2  nloc_mem =       1    nspden =       1   nspinor =       1
    nsppol =       1      nsym =      24    n1xccc =    2501    ntypat =       1
    occopt =       1   xclevel =       1
-    mband =           5        mffmem =           1         mkmem =           2
       mpw =        1926          nfft =       51840          nkpt =           2
================================================================================
P This job should need less than                      15.600 Mbytes of memory.
  Rough estimation (10% accuracy) of disk space for files :
_ WF disk file :      0.296 Mbytes ; DEN or POT disk file :      0.398 Mbytes.
================================================================================


 DATASET   10 : space group P6/m m m (#191); Bravais hP (primitive hexag.)
================================================================================
 Values of the parameters that define the memory need for DATASET 10.
     intxc =       0    ionmov =       0      iscf =       7    lmnmax =       1
     lnmax =       1     mgfft =      90  mpssoang =       2    mqgrid =    4254
     natom =       2  nloc_mem =       1    nspden =       1   nspinor =       1
    nsppol =       1      nsym =      24    n1xccc =    2501    ntypat =       1
    occopt =       1   xclevel =       1
-    mband =           5        mffmem =           1         mkmem =           2
       mpw =        2180          nfft =       51840          nkpt =           2
================================================================================
P This job should need less than                      15.696 Mbytes of memory.
  Rough estimation (10% accuracy) of disk space for files :
_ WF disk file :      0.335 Mbytes ; DEN or POT disk file :      0.398 Mbytes.
================================================================================

--------------------------------------------------------------------------------
------------- Echo of variables that govern the present computation ------------
--------------------------------------------------------------------------------
-
- outvars: echo of selected default values                                      
-   iomode0 =  0 , fftalg0 =112 , wfoptalg0 =  0
-
- outvars: echo of global parameters not present in the input file              
-  max_nthreads =    0
-
 -outvars: echo values of preprocessed input variables --------
            acell      4.7132664114E+00  4.7132664114E+00  1.8897261329E+01 Bohr
              amu      1.20110000E+01
           diemac      1.20000000E+01
             ecut1     7.00000000E+00 Hartree
             ecut2     9.00000000E+00 Hartree
             ecut3     1.10000000E+01 Hartree
             ecut4     1.30000000E+01 Hartree
             ecut5     1.50000000E+01 Hartree
             ecut6     1.70000000E+01 Hartree
             ecut7     1.90000000E+01 Hartree
             ecut8     2.10000000E+01 Hartree
             ecut9     2.30000000E+01 Hartree
             ecut10    2.50000000E+01 Hartree
-          fftalg         112
           jdtset        1    2    3    4    5    6    7    8    9   10
              kpt      0.00000000E+00  0.00000000E+00  2.50000000E-01
                       5.00000000E-01  0.00000000E+00  2.50000000E-01
         kptrlatt        2    0    0      0    2    0      0    0    2
          kptrlen      9.42653282E+00
P           mkmem           2
            natom           2
            nband           5
           ndtset          10
            ngfft1         12      12      48
            ngfft2         15      15      54
            ngfft3         16      16      60
            ngfft4         16      16      64
            ngfft5         18      18      72
            ngfft6         18      18      72
            ngfft7         20      20      80
            ngfft8         20      20      80
            ngfft9         24      24      90
            ngfft10        24      24      90
             nkpt           2
            nstep          10
             nsym          24
           ntypat           1
              occ      2.000000  2.000000  2.000000  2.000000  0.000000
            rprim      1.0000000000E+00  0.0000000000E+00  0.0000000000E+00
                      -5.0000000000E-01  8.6602540378E-01  0.0000000000E+00
                       0.0000000000E+00  0.0000000000E+00  1.0000000000E+00
           shiftk      0.00000000E+00  0.00000000E+00  5.00000000E-01
          spgroup         191
           symrel      1  0  0   0  1  0   0  0  1      -1  0  0   0 -1  0   0  0 -1
                       0  1  0   1  0  0   0  0  1       0 -1  0  -1  0  0   0  0 -1
                       1  1  0  -1  0  0   0  0  1      -1 -1  0   1  0  0   0  0 -1
                      -1  0  0   1  1  0   0  0  1       1  0  0  -1 -1  0   0  0 -1
                       0  1  0  -1 -1  0   0  0  1       0 -1  0   1  1  0   0  0 -1
                      -1 -1  0   0  1  0   0  0  1       1  1  0   0 -1  0   0  0 -1
                      -1  0  0   0 -1  0   0  0  1       1  0  0   0  1  0   0  0 -1
                       0 -1  0  -1  0  0   0  0  1       0  1  0   1  0  0   0  0 -1
                      -1 -1  0   1  0  0   0  0  1       1  1  0  -1  0  0   0  0 -1
                       1  0  0  -1 -1  0   0  0  1      -1  0  0   1  1  0   0  0 -1
                       0 -1  0   1  1  0   0  0  1       0  1  0  -1 -1  0   0  0 -1
                       1  1  0   0 -1  0   0  0  1      -1 -1  0   0  1  0   0  0 -1
            tnons      0.0000000  0.0000000  0.0000000    -0.3333333  0.3333333  0.0000000
                      -0.3333333  0.3333333  0.0000000     0.0000000  0.0000000  0.0000000
                      -0.3333333  0.3333333  0.0000000     0.0000000  0.0000000  0.0000000
                       0.0000000  0.0000000  0.0000000    -0.3333333  0.3333333  0.0000000
                       0.0000000  0.0000000  0.0000000    -0.3333333  0.3333333  0.0000000
                      -0.3333333  0.3333333  0.0000000     0.0000000  0.0000000  0.0000000
                      -0.3333333  0.3333333  0.0000000     0.0000000  0.0000000  0.0000000
                       0.0000000  0.0000000  0.0000000    -0.3333333  0.3333333  0.0000000
                       0.0000000  0.0000000  0.0000000    -0.3333333  0.3333333  0.0000000
                      -0.3333333  0.3333333  0.0000000     0.0000000  0.0000000  0.0000000
                      -0.3333333  0.3333333  0.0000000     0.0000000  0.0000000  0.0000000
                       0.0000000  0.0000000  0.0000000    -0.3333333  0.3333333  0.0000000
           toldfe      1.00000000E-06 Hartree
            typat      1  1
              wtk        0.25000    0.75000
           xangst      0.0000000000E+00  0.0000000000E+00  0.0000000000E+00
                       1.2470765814E+00  7.2000000000E-01  0.0000000000E+00
            xcart      0.0000000000E+00  0.0000000000E+00  0.0000000000E+00
                       2.3566332057E+00  1.3606028157E+00  0.0000000000E+00
             xred      0.0000000000E+00  0.0000000000E+00  0.0000000000E+00
                       6.6666666667E-01  3.3333333333E-01  0.0000000000E+00
            znucl        6.00000

================================================================================

 chkinp: Checking input parameters for consistency, jdtset=   1.

 chkinp: Checking input parameters for consistency, jdtset=   2.

 chkinp: Checking input parameters for consistency, jdtset=   3.

 chkinp: Checking input parameters for consistency, jdtset=   4.

 chkinp: Checking input parameters for consistency, jdtset=   5.

 chkinp: Checking input parameters for consistency, jdtset=   6.

 chkinp: Checking input parameters for consistency, jdtset=   7.

 chkinp: Checking input parameters for consistency, jdtset=   8.

 chkinp: Checking input parameters for consistency, jdtset=   9.

 chkinp: Checking input parameters for consistency, jdtset=  10.

================================================================================
== DATASET  1 ==================================================================
-   nproc =    1

 Exchange-correlation functional for the present dataset will be:
  LDA: new Teter (4/93) with spin-polarized option - ixc=1
 Citation for XC functional:
  S. Goedecker, M. Teter, J. Huetter, PRB 54, 1703 (1996)

 Real(R)+Recip(G) space primitive vectors, cartesian coordinates (Bohr,Bohr^-1):
 R(1)=  4.7132664  0.0000000  0.0000000  G(1)=  0.2121671  0.1224947  0.0000000
 R(2)= -2.3566332  4.0818084  0.0000000  G(2)=  0.0000000  0.2449894  0.0000000
 R(3)=  0.0000000  0.0000000 18.8972613  G(3)=  0.0000000  0.0000000  0.0529177
 Unit cell volume ucvol=  3.6355781E+02 bohr^3
 Angles (23,13,12)=  9.00000000E+01  9.00000000E+01  1.20000000E+02 degrees

 getcut: wavevector=  0.0000  0.0000  0.0000  ngfft=  12  12  48
         ecut(hartree)=      7.000   => boxcut(ratio)=   2.13269

--- Pseudopotential description ------------------------------------------------
- pspini: atom type   1  psp file is ./6c.pspnc
- pspatm: opening atomic psp file    ./6c.pspnc
-  Troullier-Martins psp for element  C         Thu Oct 27 17:29:33 EDT 1994
-  6.00000   4.00000    940714                znucl, zion, pspdat
    1    1    1    1      2001   0.00000      pspcod,pspxc,lmax,lloc,mmax,r2well
    0  10.372  24.987    1   1.4850707        l,e99.0,e99.9,nproj,rcpsp
   0.00000000   0.00000000   0.00000000   0.00000000     rms, ekb1, ekb2, epsatm
    1  15.431  21.987    0   1.4850707        l,e99.0,e99.9,nproj,rcpsp
   0.00000000   0.00000000   0.00000000   0.00000000     rms, ekb1, ekb2, epsatm
    0.83985002509544    0.99012430797080    0.51184907750884   rchrg,fchrg,qchrg
 pspatm: epsatm=    0.92590353
         --- l  ekb(1:nproj) -->
             0    4.921466
 pspatm: atomic psp has been read  and splines computed

   1.48144565E+01                                ecore*ucvol(ha*bohr**3)
--------------------------------------------------------------------------------

_setup2: Arith. and geom. avg. npw (full set) are     328.250     328.236

================================================================================

     iter   Etot(hartree)      deltaE(h)  residm     vres2
 ETOT  1  -11.097633602434    -1.110E+01 4.442E-02 4.112E+02
 ETOT  2  -11.399272982454    -3.016E-01 2.643E-04 4.616E+01
 ETOT  3  -11.410178591231    -1.091E-02 1.461E-04 1.997E+01
 ETOT  4  -11.412781682972    -2.603E-03 2.731E-05 8.932E+00
 ETOT  5  -11.413538203481    -7.565E-04 6.575E-06 3.728E+00
 ETOT  6  -11.413755949728    -2.177E-04 1.650E-06 1.453E+00
 ETOT  7  -11.413843215499    -8.727E-05 7.274E-07 4.672E-01
 ETOT  8  -11.413884156876    -4.094E-05 8.922E-07 8.851E-03
 ETOT  9  -11.413884843089    -6.862E-07 1.995E-08 1.382E-06
 ETOT 10  -11.413884843334    -2.450E-10 3.872E-11 1.675E-08

 At SCF step   10, etot is converged : 
  for the second time, diff in etot=  2.450E-10 < toldfe=  1.000E-06

 Cartesian components of stress tensor (hartree/bohr^3)
  sigma(1 1)=  7.40246356E-04  sigma(3 2)=  0.00000000E+00
  sigma(2 2)=  7.40246356E-04  sigma(3 1)=  0.00000000E+00
  sigma(3 3)=  1.47188323E-03  sigma(2 1)=  0.00000000E+00

 Integrated electronic density in atomic spheres:
 ------------------------------------------------
 Atom  Sphere_radius  Integrated_density
    1        2.00000          4.73133406
    2        2.00000          4.73133406
================================================================================

 ----iterations are completed or convergence reached----

 Mean square residual over all n,k,spin=   6.2319E-12; max=  3.8716E-11
 reduced coordinates (array xred) for    2 atoms
       0.000000000000      0.000000000000      0.000000000000
       0.666666666667      0.333333333333      0.000000000000
 rms dE/dt=  1.5546E-28; max dE/dt=  0.0000E+00; dE/dt below (all hartree)
    1      -0.000000000000      0.000000000000      0.000000000000
    2      -0.000000000000      0.000000000000      0.000000000000

 cartesian coordinates (angstrom) at end:
    1      0.00000000000000     0.00000000000000     0.00000000000000
    2      1.24707658145000     0.71999999999655     0.00000000000000

 cartesian forces (hartree/bohr) at end:
    1      0.00000000000000     0.00000000000000    -0.00000000000000
    2      0.00000000000000     0.00000000000000    -0.00000000000000
 frms,max,avg= 0.0000000E+00 0.0000000E+00   0.000E+00  0.000E+00  0.000E+00 h/b

 cartesian forces (eV/Angstrom) at end:
    1      0.00000000000000     0.00000000000000    -0.00000000000000
    2      0.00000000000000     0.00000000000000    -0.00000000000000
 frms,max,avg= 0.0000000E+00 0.0000000E+00   0.000E+00  0.000E+00  0.000E+00 e/A
 length scales=  4.713266411352  4.713266411352 18.897261328856 bohr
              =  2.494153162900  2.494153162900 10.000000000000 angstroms
 prteigrs : about to open file graphene_xo_DS1_EIG
 Fermi (or HOMO) energy (hartree) =  -0.06582   Average Vxc (hartree)=  -0.16963
 Eigenvalues (hartree) for nkpt=   2  k points:
 kpt#   1, nband=  5, wtk=  0.25000, kpt=  0.0000  0.0000  0.2500 (reduced coord)
  -0.77565   -0.28864   -0.06582   -0.06582    0.09006
 prteigrs : prtvol=0 or 1, do not print more k-points.


--------------------------------------------------------------------------------
 Components of total free energy (in Hartree) :

    Kinetic energy  =  7.16229319423077E+00
    Hartree energy  =  2.25846530190383E+01
    XC energy       = -4.16170535766204E+00
    Ewald energy    =  1.33771560373150E+01
    PspCore energy  =  4.07485580250182E-02
    Loc. psp. energy= -5.19530359278883E+01
    NL   psp  energy=  1.53600563360701E+00
    >>>>>>>>> Etotal= -1.14138848433343E+01

 Other information on the energy :
    Total energy(eV)= -3.10587601805804E+02 ; Band energy (Ha)=  -2.6610509350E+00
--------------------------------------------------------------------------------

 Cartesian components of stress tensor (hartree/bohr^3)
  sigma(1 1)=  7.40246356E-04  sigma(3 2)=  0.00000000E+00
  sigma(2 2)=  7.40246356E-04  sigma(3 1)=  0.00000000E+00
  sigma(3 3)=  1.47188323E-03  sigma(2 1)=  0.00000000E+00

-Cartesian components of stress tensor (GPa)         [Pressure= -2.8954E+01 GPa]
- sigma(1 1)=  2.17787960E+01  sigma(3 2)=  0.00000000E+00
- sigma(2 2)=  2.17787960E+01  sigma(3 1)=  0.00000000E+00
- sigma(3 3)=  4.33042926E+01  sigma(2 1)=  0.00000000E+00

================================================================================
== DATASET  2 ==================================================================
-   nproc =    1

 Exchange-correlation functional for the present dataset will be:
  LDA: new Teter (4/93) with spin-polarized option - ixc=1
 Citation for XC functional:
  S. Goedecker, M. Teter, J. Huetter, PRB 54, 1703 (1996)

 Real(R)+Recip(G) space primitive vectors, cartesian coordinates (Bohr,Bohr^-1):
 R(1)=  4.7132664  0.0000000  0.0000000  G(1)=  0.2121671  0.1224947  0.0000000
 R(2)= -2.3566332  4.0818084  0.0000000  G(2)=  0.0000000  0.2449894  0.0000000
 R(3)=  0.0000000  0.0000000 18.8972613  G(3)=  0.0000000  0.0000000  0.0529177
 Unit cell volume ucvol=  3.6355781E+02 bohr^3
 Angles (23,13,12)=  9.00000000E+01  9.00000000E+01  1.20000000E+02 degrees

 getcut: wavevector=  0.0000  0.0000  0.0000  ngfft=  15  15  54
         ecut(hartree)=      9.000   => boxcut(ratio)=   2.11597

--- Pseudopotential description ------------------------------------------------
- pspini: atom type   1  psp file is ./6c.pspnc
- pspatm: opening atomic psp file    ./6c.pspnc
-  Troullier-Martins psp for element  C         Thu Oct 27 17:29:33 EDT 1994
-  6.00000   4.00000    940714                znucl, zion, pspdat
    1    1    1    1      2001   0.00000      pspcod,pspxc,lmax,lloc,mmax,r2well
    0  10.372  24.987    1   1.4850707        l,e99.0,e99.9,nproj,rcpsp
   0.00000000   0.00000000   0.00000000   0.00000000     rms, ekb1, ekb2, epsatm
    1  15.431  21.987    0   1.4850707        l,e99.0,e99.9,nproj,rcpsp
   0.00000000   0.00000000   0.00000000   0.00000000     rms, ekb1, ekb2, epsatm
    0.83985002509544    0.99012430797080    0.51184907750884   rchrg,fchrg,qchrg
 pspatm: epsatm=    0.92590353
         --- l  ekb(1:nproj) -->
             0    4.921466
 pspatm: atomic psp has been read  and splines computed

--------------------------------------------------------------------------------

_setup2: Arith. and geom. avg. npw (full set) are     468.500     468.436

================================================================================

     iter   Etot(hartree)      deltaE(h)  residm     vres2
 ETOT  1  -11.563346174297    -1.156E+01 6.967E-03 2.845E+00
 ETOT  2  -11.647332510806    -8.399E-02 4.001E-06 3.671E+00
 ETOT  3  -11.647880913020    -5.484E-04 4.452E-06 1.260E+00
 ETOT  4  -11.648034532289    -1.536E-04 1.797E-06 1.576E-01
 ETOT  5  -11.648053083526    -1.855E-05 5.493E-07 5.142E-03
 ETOT  6  -11.648053472730    -3.892E-07 7.981E-09 4.179E-04
 ETOT  7  -11.648053472177     5.530E-10 1.519E-10 1.728E-04

 At SCF step    7, etot is converged : 
  for the second time, diff in etot=  5.530E-10 < toldfe=  1.000E-06

 Cartesian components of stress tensor (hartree/bohr^3)
  sigma(1 1)=  7.91558716E-04  sigma(3 2)=  0.00000000E+00
  sigma(2 2)=  7.91558716E-04  sigma(3 1)=  0.00000000E+00
  sigma(3 3)=  1.42060474E-03  sigma(2 1)=  0.00000000E+00

 Integrated electronic density in atomic spheres:
 ------------------------------------------------
 Atom  Sphere_radius  Integrated_density
    1        2.00000          4.77909219
    2        2.00000          4.77909219
================================================================================

 ----iterations are completed or convergence reached----

 Mean square residual over all n,k,spin=   2.5441E-11; max=  1.5188E-10
 reduced coordinates (array xred) for    2 atoms
       0.000000000000      0.000000000000      0.000000000000
       0.666666666667      0.333333333333      0.000000000000
 rms dE/dt=  2.1985E-28; max dE/dt=  2.6926E-28; dE/dt below (all hartree)
    1       0.000000000000      0.000000000000      0.000000000000
    2      -0.000000000000     -0.000000000000      0.000000000000

 cartesian coordinates (angstrom) at end:
    1      0.00000000000000     0.00000000000000     0.00000000000000
    2      1.24707658145000     0.71999999999655     0.00000000000000

 cartesian forces (hartree/bohr) at end:
    1     -0.00000000000000    -0.00000000000000    -0.00000000000000
    2      0.00000000000000     0.00000000000000    -0.00000000000000
 frms,max,avg= 6.5966967E-29 9.8950450E-29   0.000E+00  0.000E+00  0.000E+00 h/b

 cartesian forces (eV/Angstrom) at end:
    1     -0.00000000000000    -0.00000000000000    -0.00000000000000
    2      0.00000000000000     0.00000000000000    -0.00000000000000
 frms,max,avg= 3.3921575E-27 5.0882363E-27   0.000E+00  0.000E+00  0.000E+00 e/A
 length scales=  4.713266411352  4.713266411352 18.897261328856 bohr
              =  2.494153162900  2.494153162900 10.000000000000 angstroms
 prteigrs : about to open file graphene_xo_DS2_EIG
 Fermi (or HOMO) energy (hartree) =  -0.09167   Average Vxc (hartree)=  -0.16764
 Eigenvalues (hartree) for nkpt=   2  k points:
 kpt#   1, nband=  5, wtk=  0.25000, kpt=  0.0000  0.0000  0.2500 (reduced coord)
  -0.75593   -0.29255   -0.10150   -0.10150    0.08963
 prteigrs : prtvol=0 or 1, do not print more k-points.


--------------------------------------------------------------------------------
 Components of total free energy (in Hartree) :

    Kinetic energy  =  7.61152638195248E+00
    Hartree energy  =  2.27695925538379E+01
    XC energy       = -4.19799138035621E+00
    Ewald energy    =  1.33771560373150E+01
    PspCore energy  =  4.07485580250182E-02
    Loc. psp. energy= -5.26639395198812E+01
    NL   psp  energy=  1.41485389693028E+00
    >>>>>>>>> Etotal= -1.16480534721768E+01

 Other information on the energy :
    Total energy(eV)= -3.16959654253207E+02 ; Band energy (Ha)=  -2.7090142446E+00
--------------------------------------------------------------------------------

 Cartesian components of stress tensor (hartree/bohr^3)
  sigma(1 1)=  7.91558716E-04  sigma(3 2)=  0.00000000E+00
  sigma(2 2)=  7.91558716E-04  sigma(3 1)=  0.00000000E+00
  sigma(3 3)=  1.42060474E-03  sigma(2 1)=  0.00000000E+00

-Cartesian components of stress tensor (GPa)         [Pressure= -2.9458E+01 GPa]
- sigma(1 1)=  2.32884575E+01  sigma(3 2)=  0.00000000E+00
- sigma(2 2)=  2.32884575E+01  sigma(3 1)=  0.00000000E+00
- sigma(3 3)=  4.17956274E+01  sigma(2 1)=  0.00000000E+00

================================================================================
== DATASET  3 ==================================================================
-   nproc =    1

 Exchange-correlation functional for the present dataset will be:
  LDA: new Teter (4/93) with spin-polarized option - ixc=1
 Citation for XC functional:
  S. Goedecker, M. Teter, J. Huetter, PRB 54, 1703 (1996)

 Real(R)+Recip(G) space primitive vectors, cartesian coordinates (Bohr,Bohr^-1):
 R(1)=  4.7132664  0.0000000  0.0000000  G(1)=  0.2121671  0.1224947  0.0000000
 R(2)= -2.3566332  4.0818084  0.0000000  G(2)=  0.0000000  0.2449894  0.0000000
 R(3)=  0.0000000  0.0000000 18.8972613  G(3)=  0.0000000  0.0000000  0.0529177
 Unit cell volume ucvol=  3.6355781E+02 bohr^3
 Angles (23,13,12)=  9.00000000E+01  9.00000000E+01  1.20000000E+02 degrees

 getcut: wavevector=  0.0000  0.0000  0.0000  ngfft=  16  16  60
         ecut(hartree)=     11.000   => boxcut(ratio)=   2.12663

--- Pseudopotential description ------------------------------------------------
- pspini: atom type   1  psp file is ./6c.pspnc
- pspatm: opening atomic psp file    ./6c.pspnc
-  Troullier-Martins psp for element  C         Thu Oct 27 17:29:33 EDT 1994
-  6.00000   4.00000    940714                znucl, zion, pspdat
    1    1    1    1      2001   0.00000      pspcod,pspxc,lmax,lloc,mmax,r2well
    0  10.372  24.987    1   1.4850707        l,e99.0,e99.9,nproj,rcpsp
   0.00000000   0.00000000   0.00000000   0.00000000     rms, ekb1, ekb2, epsatm
    1  15.431  21.987    0   1.4850707        l,e99.0,e99.9,nproj,rcpsp
   0.00000000   0.00000000   0.00000000   0.00000000     rms, ekb1, ekb2, epsatm
    0.83985002509544    0.99012430797080    0.51184907750884   rchrg,fchrg,qchrg
 pspatm: epsatm=    0.92590353
         --- l  ekb(1:nproj) -->
             0    4.921466
 pspatm: atomic psp has been read  and splines computed

--------------------------------------------------------------------------------

_setup2: Arith. and geom. avg. npw (full set) are     629.500     629.368

================================================================================

     iter   Etot(hartree)      deltaE(h)  residm     vres2
 ETOT  1  -11.783510832491    -1.178E+01 2.158E-02 2.246E+01
 ETOT  2  -11.798437479207    -1.493E-02 6.203E-06 1.884E+00
 ETOT  3  -11.798523649080    -8.617E-05 6.816E-07 5.763E-01
 ETOT  4  -11.798562415288    -3.877E-05 6.321E-07 4.250E-02
 ETOT  5  -11.798563762025    -1.347E-06 3.263E-08 2.495E-03
 ETOT  6  -11.798563763178    -1.153E-09 1.381E-09 4.264E-04
 ETOT  7  -11.798563768604    -5.425E-09 2.423E-10 1.748E-04

 At SCF step    7, etot is converged : 
  for the second time, diff in etot=  5.425E-09 < toldfe=  1.000E-06

 Cartesian components of stress tensor (hartree/bohr^3)
  sigma(1 1)=  7.43708246E-04  sigma(3 2)=  0.00000000E+00
  sigma(2 2)=  7.43708246E-04  sigma(3 1)=  0.00000000E+00
  sigma(3 3)=  1.10312982E-03  sigma(2 1)=  0.00000000E+00

 Integrated electronic density in atomic spheres:
 ------------------------------------------------
 Atom  Sphere_radius  Integrated_density
    1        2.00000          4.63092593
    2        2.00000          4.71761960
================================================================================

 ----iterations are completed or convergence reached----

 Mean square residual over all n,k,spin=   3.5356E-11; max=  2.4230E-10
 reduced coordinates (array xred) for    2 atoms
       0.000000000000      0.000000000000      0.000000000000
       0.666666666667      0.333333333333      0.000000000000
 rms dE/dt=  7.3387E-28; max dE/dt=  1.3463E-27; dE/dt below (all hartree)
    1      -0.000000000000      0.000000000000      0.000000000000
    2       0.000000000000      0.000000000000      0.000000000000

 cartesian coordinates (angstrom) at end:
    1      0.00000000000000     0.00000000000000     0.00000000000000
    2      1.24707658145000     0.71999999999655     0.00000000000000

 cartesian forces (hartree/bohr) at end:
    1      0.00000000000000     0.00000000000000    -0.00000000000000
    2     -0.00000000000000    -0.00000000000000     0.00000000000000
 frms,max,avg= 1.7156328E-28 2.5708081E-28   0.000E+00  0.000E+00  0.000E+00 h/b

 cartesian forces (eV/Angstrom) at end:
    1      0.00000000000000     0.00000000000000    -0.00000000000000
    2     -0.00000000000000    -0.00000000000000     0.00000000000000
 frms,max,avg= 8.8221377E-27 1.3219626E-26   0.000E+00  0.000E+00  0.000E+00 e/A
 length scales=  4.713266411352  4.713266411352 18.897261328856 bohr
              =  2.494153162900  2.494153162900 10.000000000000 angstroms
 prteigrs : about to open file graphene_xo_DS3_EIG
 Fermi (or HOMO) energy (hartree) =  -0.09889   Average Vxc (hartree)=  -0.16521
 Eigenvalues (hartree) for nkpt=   2  k points:
 kpt#   1, nband=  5, wtk=  0.25000, kpt=  0.0000  0.0000  0.2500 (reduced coord)
  -0.74304   -0.29366   -0.12286   -0.12286    0.09000
 prteigrs : prtvol=0 or 1, do not print more k-points.


--------------------------------------------------------------------------------
 Components of total free energy (in Hartree) :

    Kinetic energy  =  7.93458033884675E+00
    Hartree energy  =  2.28975596309537E+01
    XC energy       = -4.22488012412896E+00
    Ewald energy    =  1.33771560373150E+01
    PspCore energy  =  4.07485580250182E-02
    Loc. psp. energy= -5.31603381492125E+01
    NL   psp  energy=  1.33660993959737E+00
    >>>>>>>>> Etotal= -1.17985637686037E+01

 Other information on the energy :
    Total energy(eV)= -3.21055247704163E+02 ; Band energy (Ha)=  -2.7318032091E+00
--------------------------------------------------------------------------------

 Cartesian components of stress tensor (hartree/bohr^3)
  sigma(1 1)=  7.43708246E-04  sigma(3 2)=  0.00000000E+00
  sigma(2 2)=  7.43708246E-04  sigma(3 1)=  0.00000000E+00
  sigma(3 3)=  1.10312982E-03  sigma(2 1)=  0.00000000E+00

-Cartesian components of stress tensor (GPa)         [Pressure= -2.5405E+01 GPa]
- sigma(1 1)=  2.18806483E+01  sigma(3 2)=  0.00000000E+00
- sigma(2 2)=  2.18806483E+01  sigma(3 1)=  0.00000000E+00
- sigma(3 3)=  3.24551944E+01  sigma(2 1)=  0.00000000E+00

================================================================================
== DATASET  4 ==================================================================
-   nproc =    1

 Exchange-correlation functional for the present dataset will be:
  LDA: new Teter (4/93) with spin-polarized option - ixc=1
 Citation for XC functional:
  S. Goedecker, M. Teter, J. Huetter, PRB 54, 1703 (1996)

 Real(R)+Recip(G) space primitive vectors, cartesian coordinates (Bohr,Bohr^-1):
 R(1)=  4.7132664  0.0000000  0.0000000  G(1)=  0.2121671  0.1224947  0.0000000
 R(2)= -2.3566332  4.0818084  0.0000000  G(2)=  0.0000000  0.2449894  0.0000000
 R(3)=  0.0000000  0.0000000 18.8972613  G(3)=  0.0000000  0.0000000  0.0529177
 Unit cell volume ucvol=  3.6355781E+02 bohr^3
 Angles (23,13,12)=  9.00000000E+01  9.00000000E+01  1.20000000E+02 degrees

 getcut: wavevector=  0.0000  0.0000  0.0000  ngfft=  16  16  64
         ecut(hartree)=     13.000   => boxcut(ratio)=   2.08662

--- Pseudopotential description ------------------------------------------------
- pspini: atom type   1  psp file is ./6c.pspnc
- pspatm: opening atomic psp file    ./6c.pspnc
-  Troullier-Martins psp for element  C         Thu Oct 27 17:29:33 EDT 1994
-  6.00000   4.00000    940714                znucl, zion, pspdat
    1    1    1    1      2001   0.00000      pspcod,pspxc,lmax,lloc,mmax,r2well
    0  10.372  24.987    1   1.4850707        l,e99.0,e99.9,nproj,rcpsp
   0.00000000   0.00000000   0.00000000   0.00000000     rms, ekb1, ekb2, epsatm
    1  15.431  21.987    0   1.4850707        l,e99.0,e99.9,nproj,rcpsp
   0.00000000   0.00000000   0.00000000   0.00000000     rms, ekb1, ekb2, epsatm
    0.83985002509544    0.99012430797080    0.51184907750884   rchrg,fchrg,qchrg
 pspatm: epsatm=    0.92590353
         --- l  ekb(1:nproj) -->
             0    4.921466
 pspatm: atomic psp has been read  and splines computed

--------------------------------------------------------------------------------

_setup2: Arith. and geom. avg. npw (full set) are     814.750     814.699

================================================================================

     iter   Etot(hartree)      deltaE(h)  residm     vres2
 ETOT  1  -11.855684402273    -1.186E+01 8.474E-02 2.597E+01
 ETOT  2  -11.881153731915    -2.547E-02 6.426E-06 3.545E+00
 ETOT  3  -11.881407679241    -2.539E-04 3.199E-06 8.316E-01
 ETOT  4  -11.881452847939    -4.517E-05 7.208E-07 9.693E-02
 ETOT  5  -11.881455933350    -3.085E-06 1.002E-07 2.479E-03
 ETOT  6  -11.881455943256    -9.906E-09 1.494E-09 5.231E-04
 ETOT  7  -11.881455945328    -2.072E-09 2.526E-10 2.276E-04

 At SCF step    7, etot is converged : 
  for the second time, diff in etot=  2.072E-09 < toldfe=  1.000E-06

 Cartesian components of stress tensor (hartree/bohr^3)
  sigma(1 1)=  6.31137949E-04  sigma(3 2)=  0.00000000E+00
  sigma(2 2)=  6.31137949E-04  sigma(3 1)=  0.00000000E+00
  sigma(3 3)=  8.07182457E-04  sigma(2 1)=  0.00000000E+00

 Integrated electronic density in atomic spheres:
 ------------------------------------------------
 Atom  Sphere_radius  Integrated_density
    1        2.00000          4.68689556
    2        2.00000          4.67197895
================================================================================

 ----iterations are completed or convergence reached----

 Mean square residual over all n,k,spin=   3.8401E-11; max=  2.5262E-10
 reduced coordinates (array xred) for    2 atoms
       0.000000000000      0.000000000000      0.000000000000
       0.666666666667      0.333333333333      0.000000000000
 rms dE/dt=  2.4580E-28; max dE/dt=  2.6926E-28; dE/dt below (all hartree)
    1       0.000000000000      0.000000000000      0.000000000000
    2      -0.000000000000      0.000000000000      0.000000000000

 cartesian coordinates (angstrom) at end:
    1      0.00000000000000     0.00000000000000     0.00000000000000
    2      1.24707658145000     0.71999999999655     0.00000000000000

 cartesian forces (hartree/bohr) at end:
    1     -0.00000000000000    -0.00000000000000    -0.00000000000000
    2      0.00000000000000     0.00000000000000    -0.00000000000000
 frms,max,avg= 5.7129069E-29 8.5693604E-29   0.000E+00  0.000E+00  0.000E+00 h/b

 cartesian forces (eV/Angstrom) at end:
    1     -0.00000000000000    -0.00000000000000    -0.00000000000000
    2      0.00000000000000     0.00000000000000    -0.00000000000000
 frms,max,avg= 2.9376946E-27 4.4065419E-27   0.000E+00  0.000E+00  0.000E+00 e/A
 length scales=  4.713266411352  4.713266411352 18.897261328856 bohr
              =  2.494153162900  2.494153162900 10.000000000000 angstroms
 prteigrs : about to open file graphene_xo_DS4_EIG
 Fermi (or HOMO) energy (hartree) =  -0.10316   Average Vxc (hartree)=  -0.16345
 Eigenvalues (hartree) for nkpt=   2  k points:
 kpt#   1, nband=  5, wtk=  0.25000, kpt=  0.0000  0.0000  0.2500 (reduced coord)
  -0.73496   -0.29585   -0.12290   -0.12290    0.09041
 prteigrs : prtvol=0 or 1, do not print more k-points.


--------------------------------------------------------------------------------
 Components of total free energy (in Hartree) :

    Kinetic energy  =  8.14757778257653E+00
    Hartree energy  =  2.29813792187486E+01
    XC energy       = -4.24297542155379E+00
    Ewald energy    =  1.33771560373150E+01
    PspCore energy  =  4.07485580250182E-02
    Loc. psp. energy= -5.34667360452196E+01
    NL   psp  energy=  1.28139392478067E+00
    >>>>>>>>> Etotal= -1.18814559453276E+01

 Other information on the energy :
    Total energy(eV)= -3.23310858543990E+02 ; Band energy (Ha)=  -2.7331910803E+00
--------------------------------------------------------------------------------

 Cartesian components of stress tensor (hartree/bohr^3)
  sigma(1 1)=  6.31137949E-04  sigma(3 2)=  0.00000000E+00
  sigma(2 2)=  6.31137949E-04  sigma(3 1)=  0.00000000E+00
  sigma(3 3)=  8.07182457E-04  sigma(2 1)=  0.00000000E+00

-Cartesian components of stress tensor (GPa)         [Pressure= -2.0295E+01 GPa]
- sigma(1 1)=  1.85687164E+01  sigma(3 2)=  0.00000000E+00
- sigma(2 2)=  1.85687164E+01  sigma(3 1)=  0.00000000E+00
- sigma(3 3)=  2.37481238E+01  sigma(2 1)=  0.00000000E+00

================================================================================
== DATASET  5 ==================================================================
-   nproc =    1

 Exchange-correlation functional for the present dataset will be:
  LDA: new Teter (4/93) with spin-polarized option - ixc=1
 Citation for XC functional:
  S. Goedecker, M. Teter, J. Huetter, PRB 54, 1703 (1996)

 Real(R)+Recip(G) space primitive vectors, cartesian coordinates (Bohr,Bohr^-1):
 R(1)=  4.7132664  0.0000000  0.0000000  G(1)=  0.2121671  0.1224947  0.0000000
 R(2)= -2.3566332  4.0818084  0.0000000  G(2)=  0.0000000  0.2449894  0.0000000
 R(3)=  0.0000000  0.0000000 18.8972613  G(3)=  0.0000000  0.0000000  0.0529177
 Unit cell volume ucvol=  3.6355781E+02 bohr^3
 Angles (23,13,12)=  9.00000000E+01  9.00000000E+01  1.20000000E+02 degrees

 getcut: wavevector=  0.0000  0.0000  0.0000  ngfft=  18  18  72
         ecut(hartree)=     15.000   => boxcut(ratio)=   2.18536

--- Pseudopotential description ------------------------------------------------
- pspini: atom type   1  psp file is ./6c.pspnc
- pspatm: opening atomic psp file    ./6c.pspnc
-  Troullier-Martins psp for element  C         Thu Oct 27 17:29:33 EDT 1994
-  6.00000   4.00000    940714                znucl, zion, pspdat
    1    1    1    1      2001   0.00000      pspcod,pspxc,lmax,lloc,mmax,r2well
    0  10.372  24.987    1   1.4850707        l,e99.0,e99.9,nproj,rcpsp
   0.00000000   0.00000000   0.00000000   0.00000000     rms, ekb1, ekb2, epsatm
    1  15.431  21.987    0   1.4850707        l,e99.0,e99.9,nproj,rcpsp
   0.00000000   0.00000000   0.00000000   0.00000000     rms, ekb1, ekb2, epsatm
    0.83985002509544    0.99012430797080    0.51184907750884   rchrg,fchrg,qchrg
 pspatm: epsatm=    0.92590353
         --- l  ekb(1:nproj) -->
             0    4.921466
 pspatm: atomic psp has been read  and splines computed

--------------------------------------------------------------------------------

_setup2: Arith. and geom. avg. npw (full set) are    1014.750    1014.560

================================================================================

     iter   Etot(hartree)      deltaE(h)  residm     vres2
 ETOT  1  -11.903204187236    -1.190E+01 5.506E-02 5.412E+01
 ETOT  2  -11.925221763761    -2.202E-02 1.329E-05 4.255E+00
 ETOT  3  -11.925344881211    -1.231E-04 1.335E-06 1.409E+00
 ETOT  4  -11.925408656594    -6.378E-05 1.346E-06 6.775E-02
 ETOT  5  -11.925409549573    -8.930E-07 3.684E-08 5.759E-03
 ETOT  6  -11.925409606048    -5.647E-08 4.658E-09 6.684E-05

 At SCF step    6, etot is converged : 
  for the second time, diff in etot=  5.647E-08 < toldfe=  1.000E-06

 Cartesian components of stress tensor (hartree/bohr^3)
  sigma(1 1)=  5.47503601E-04  sigma(3 2)=  0.00000000E+00
  sigma(2 2)=  5.47503601E-04  sigma(3 1)=  0.00000000E+00
  sigma(3 3)=  5.19713629E-04  sigma(2 1)=  0.00000000E+00

 Integrated electronic density in atomic spheres:
 ------------------------------------------------
 Atom  Sphere_radius  Integrated_density
    1        2.00000          4.76004277
    2        2.00000          4.76004277
================================================================================

 ----iterations are completed or convergence reached----

 Mean square residual over all n,k,spin=   9.8589E-10; max=  4.6584E-09
 reduced coordinates (array xred) for    2 atoms
       0.000000000000      0.000000000000      0.000000000000
       0.666666666667      0.333333333333      0.000000000000
 rms dE/dt=  1.5546E-28; max dE/dt=  2.6926E-28; dE/dt below (all hartree)
    1       0.000000000000      0.000000000000      0.000000000000
    2      -0.000000000000      0.000000000000      0.000000000000

 cartesian coordinates (angstrom) at end:
    1      0.00000000000000     0.00000000000000     0.00000000000000
    2      1.24707658145000     0.71999999999655     0.00000000000000

 cartesian forces (hartree/bohr) at end:
    1     -0.00000000000000    -0.00000000000000    -0.00000000000000
    2      0.00000000000000     0.00000000000000    -0.00000000000000
 frms,max,avg= 3.8086046E-29 5.7129069E-29   0.000E+00  0.000E+00  0.000E+00 h/b

 cartesian forces (eV/Angstrom) at end:
    1     -0.00000000000000    -0.00000000000000    -0.00000000000000
    2      0.00000000000000     0.00000000000000    -0.00000000000000
 frms,max,avg= 1.9584631E-27 2.9376946E-27   0.000E+00  0.000E+00  0.000E+00 e/A
 length scales=  4.713266411352  4.713266411352 18.897261328856 bohr
              =  2.494153162900  2.494153162900 10.000000000000 angstroms
 prteigrs : about to open file graphene_xo_DS5_EIG
 Fermi (or HOMO) energy (hartree) =  -0.10622   Average Vxc (hartree)=  -0.16209
 Eigenvalues (hartree) for nkpt=   2  k points:
 kpt#   1, nband=  5, wtk=  0.25000, kpt=  0.0000  0.0000  0.2500 (reduced coord)
  -0.72964   -0.29769   -0.12154   -0.12154    0.09090
 prteigrs : prtvol=0 or 1, do not print more k-points.


--------------------------------------------------------------------------------
 Components of total free energy (in Hartree) :

    Kinetic energy  =  8.27261829799615E+00
    Hartree energy  =  2.30301470483327E+01
    XC energy       = -4.25385195926449E+00
    Ewald energy    =  1.33771560373150E+01
    PspCore energy  =  4.07485580250182E-02
    Loc. psp. energy= -5.36520237458069E+01
    NL   psp  energy=  1.25979615735498E+00
    >>>>>>>>> Etotal= -1.19254096060475E+01

 Other information on the energy :
    Total energy(eV)= -3.24506898477891E+02 ; Band energy (Ha)=  -2.7264023567E+00
--------------------------------------------------------------------------------

 Cartesian components of stress tensor (hartree/bohr^3)
  sigma(1 1)=  5.47503601E-04  sigma(3 2)=  0.00000000E+00
  sigma(2 2)=  5.47503601E-04  sigma(3 1)=  0.00000000E+00
  sigma(3 3)=  5.19713629E-04  sigma(2 1)=  0.00000000E+00

-Cartesian components of stress tensor (GPa)         [Pressure= -1.5836E+01 GPa]
- sigma(1 1)=  1.61081093E+01  sigma(3 2)=  0.00000000E+00
- sigma(2 2)=  1.61081093E+01  sigma(3 1)=  0.00000000E+00
- sigma(3 3)=  1.52905003E+01  sigma(2 1)=  0.00000000E+00

================================================================================
== DATASET  6 ==================================================================
-   nproc =    1

 Exchange-correlation functional for the present dataset will be:
  LDA: new Teter (4/93) with spin-polarized option - ixc=1
 Citation for XC functional:
  S. Goedecker, M. Teter, J. Huetter, PRB 54, 1703 (1996)

 Real(R)+Recip(G) space primitive vectors, cartesian coordinates (Bohr,Bohr^-1):
 R(1)=  4.7132664  0.0000000  0.0000000  G(1)=  0.2121671  0.1224947  0.0000000
 R(2)= -2.3566332  4.0818084  0.0000000  G(2)=  0.0000000  0.2449894  0.0000000
 R(3)=  0.0000000  0.0000000 18.8972613  G(3)=  0.0000000  0.0000000  0.0529177
 Unit cell volume ucvol=  3.6355781E+02 bohr^3
 Angles (23,13,12)=  9.00000000E+01  9.00000000E+01  1.20000000E+02 degrees

 getcut: wavevector=  0.0000  0.0000  0.0000  ngfft=  18  18  72
         ecut(hartree)=     17.000   => boxcut(ratio)=   2.05279

--- Pseudopotential description ------------------------------------------------
- pspini: atom type   1  psp file is ./6c.pspnc
- pspatm: opening atomic psp file    ./6c.pspnc
-  Troullier-Martins psp for element  C         Thu Oct 27 17:29:33 EDT 1994
-  6.00000   4.00000    940714                znucl, zion, pspdat
    1    1    1    1      2001   0.00000      pspcod,pspxc,lmax,lloc,mmax,r2well
    0  10.372  24.987    1   1.4850707        l,e99.0,e99.9,nproj,rcpsp
   0.00000000   0.00000000   0.00000000   0.00000000     rms, ekb1, ekb2, epsatm
    1  15.431  21.987    0   1.4850707        l,e99.0,e99.9,nproj,rcpsp
   0.00000000   0.00000000   0.00000000   0.00000000     rms, ekb1, ekb2, epsatm
    0.83985002509544    0.99012430797080    0.51184907750884   rchrg,fchrg,qchrg
 pspatm: epsatm=    0.92590353
         --- l  ekb(1:nproj) -->
             0    4.921466
 pspatm: atomic psp has been read  and splines computed

--------------------------------------------------------------------------------

_setup2: Arith. and geom. avg. npw (full set) are    1220.750    1220.657

================================================================================

     iter   Etot(hartree)      deltaE(h)  residm     vres2
 ETOT  1  -11.898761683053    -1.190E+01 1.685E-01 2.149E+01
 ETOT  2  -11.956487237402    -5.773E-02 1.526E-05 1.251E+01
 ETOT  3  -11.957466571427    -9.793E-04 1.546E-05 2.273E+00
 ETOT  4  -11.957542070456    -7.550E-05 1.075E-06 5.543E-01
 ETOT  5  -11.957560682610    -1.861E-05 7.930E-07 3.944E-02
 ETOT  6  -11.957561368375    -6.858E-07 9.956E-08 2.713E-02
 ETOT  7  -11.957561892596    -5.242E-07 1.143E-08 9.348E-03

 At SCF step    7, etot is converged : 
  for the second time, diff in etot=  5.242E-07 < toldfe=  1.000E-06

 Cartesian components of stress tensor (hartree/bohr^3)
  sigma(1 1)=  3.93439530E-04  sigma(3 2)=  0.00000000E+00
  sigma(2 2)=  3.93439530E-04  sigma(3 1)=  0.00000000E+00
  sigma(3 3)=  3.43140729E-04  sigma(2 1)=  0.00000000E+00

 Integrated electronic density in atomic spheres:
 ------------------------------------------------
 Atom  Sphere_radius  Integrated_density
    1        2.00000          4.76497472
    2        2.00000          4.76497472
================================================================================

 ----iterations are completed or convergence reached----

 Mean square residual over all n,k,spin=   2.2130E-09; max=  1.1428E-08
 reduced coordinates (array xred) for    2 atoms
       0.000000000000      0.000000000000      0.000000000000
       0.666666666667      0.333333333333      0.000000000000
 rms dE/dt=  1.9040E-28; max dE/dt=  2.6926E-28; dE/dt below (all hartree)
    1       0.000000000000     -0.000000000000      0.000000000000
    2       0.000000000000      0.000000000000      0.000000000000

 cartesian coordinates (angstrom) at end:
    1      0.00000000000000     0.00000000000000     0.00000000000000
    2      1.24707658145000     0.71999999999655     0.00000000000000

 cartesian forces (hartree/bohr) at end:
    1     -0.00000000000000     0.00000000000000    -0.00000000000000
    2      0.00000000000000    -0.00000000000000    -0.00000000000000
 frms,max,avg= 3.2983483E-29 4.9475225E-29   0.000E+00  0.000E+00  0.000E+00 h/b

 cartesian forces (eV/Angstrom) at end:
    1     -0.00000000000000     0.00000000000000    -0.00000000000000
    2      0.00000000000000    -0.00000000000000    -0.00000000000000
 frms,max,avg= 1.6960788E-27 2.5441182E-27   0.000E+00  0.000E+00  0.000E+00 e/A
 length scales=  4.713266411352  4.713266411352 18.897261328856 bohr
              =  2.494153162900  2.494153162900 10.000000000000 angstroms
 prteigrs : about to open file graphene_xo_DS6_EIG
 Fermi (or HOMO) energy (hartree) =  -0.10891   Average Vxc (hartree)=  -0.16135
 Eigenvalues (hartree) for nkpt=   2  k points:
 kpt#   1, nband=  5, wtk=  0.25000, kpt=  0.0000  0.0000  0.2500 (reduced coord)
  -0.72728   -0.29902   -0.12920   -0.12920    0.09113
 prteigrs : prtvol=0 or 1, do not print more k-points.


--------------------------------------------------------------------------------
 Components of total free energy (in Hartree) :

    Kinetic energy  =  8.36550271838129E+00
    Hartree energy  =  2.30594723257468E+01
    XC energy       = -4.26162215616478E+00
    Ewald energy    =  1.33771560373150E+01
    PspCore energy  =  4.07485580250182E-02
    Loc. psp. energy= -5.37883541408056E+01
    NL   psp  energy=  1.24953476490594E+00
    >>>>>>>>> Etotal= -1.19575618925964E+01

 Other information on the energy :
    Total energy(eV)= -3.25381806689148E+02 ; Band energy (Ha)=  -2.7352358108E+00
--------------------------------------------------------------------------------

 Cartesian components of stress tensor (hartree/bohr^3)
  sigma(1 1)=  3.93439530E-04  sigma(3 2)=  0.00000000E+00
  sigma(2 2)=  3.93439530E-04  sigma(3 1)=  0.00000000E+00
  sigma(3 3)=  3.43140729E-04  sigma(2 1)=  0.00000000E+00

-Cartesian components of stress tensor (GPa)         [Pressure= -1.1082E+01 GPa]
- sigma(1 1)=  1.15753887E+01  sigma(3 2)=  0.00000000E+00
- sigma(2 2)=  1.15753887E+01  sigma(3 1)=  0.00000000E+00
- sigma(3 3)=  1.00955471E+01  sigma(2 1)=  0.00000000E+00

================================================================================
== DATASET  7 ==================================================================
-   nproc =    1

 Exchange-correlation functional for the present dataset will be:
  LDA: new Teter (4/93) with spin-polarized option - ixc=1
 Citation for XC functional:
  S. Goedecker, M. Teter, J. Huetter, PRB 54, 1703 (1996)

 Real(R)+Recip(G) space primitive vectors, cartesian coordinates (Bohr,Bohr^-1):
 R(1)=  4.7132664  0.0000000  0.0000000  G(1)=  0.2121671  0.1224947  0.0000000
 R(2)= -2.3566332  4.0818084  0.0000000  G(2)=  0.0000000  0.2449894  0.0000000
 R(3)=  0.0000000  0.0000000 18.8972613  G(3)=  0.0000000  0.0000000  0.0529177
 Unit cell volume ucvol=  3.6355781E+02 bohr^3
 Angles (23,13,12)=  9.00000000E+01  9.00000000E+01  1.20000000E+02 degrees

 getcut: wavevector=  0.0000  0.0000  0.0000  ngfft=  20  20  80
         ecut(hartree)=     19.000   => boxcut(ratio)=   2.15749

--- Pseudopotential description ------------------------------------------------
- pspini: atom type   1  psp file is ./6c.pspnc
- pspatm: opening atomic psp file    ./6c.pspnc
-  Troullier-Martins psp for element  C         Thu Oct 27 17:29:33 EDT 1994
-  6.00000   4.00000    940714                znucl, zion, pspdat
    1    1    1    1      2001   0.00000      pspcod,pspxc,lmax,lloc,mmax,r2well
    0  10.372  24.987    1   1.4850707        l,e99.0,e99.9,nproj,rcpsp
   0.00000000   0.00000000   0.00000000   0.00000000     rms, ekb1, ekb2, epsatm
    1  15.431  21.987    0   1.4850707        l,e99.0,e99.9,nproj,rcpsp
   0.00000000   0.00000000   0.00000000   0.00000000     rms, ekb1, ekb2, epsatm
    0.83985002509544    0.99012430797080    0.51184907750884   rchrg,fchrg,qchrg
 pspatm: epsatm=    0.92590353
         --- l  ekb(1:nproj) -->
             0    4.921466
 pspatm: atomic psp has been read  and splines computed

--------------------------------------------------------------------------------

_setup2: Arith. and geom. avg. npw (full set) are    1435.750    1435.735

================================================================================

     iter   Etot(hartree)      deltaE(h)  residm     vres2
 ETOT  1  -11.922946105016    -1.192E+01 4.437E-02 2.465E+01
 ETOT  2  -11.975252966260    -5.231E-02 1.745E-05 2.050E+01
 ETOT  3  -11.976407143487    -1.154E-03 1.850E-05 4.175E+00
 ETOT  4  -11.976496214082    -8.907E-05 1.330E-06 1.149E+00
 ETOT  5  -11.976533197038    -3.698E-05 1.621E-06 5.663E-02
 ETOT  6  -11.976535432198    -2.235E-06 1.882E-07 4.513E-02
 ETOT  7  -11.976536120373    -6.882E-07 1.500E-08 1.611E-02
 ETOT  8  -11.976536263446    -1.431E-07 5.388E-09 1.302E-03

 At SCF step    8, etot is converged : 
  for the second time, diff in etot=  1.431E-07 < toldfe=  1.000E-06

 Cartesian components of stress tensor (hartree/bohr^3)
  sigma(1 1)=  2.63704104E-04  sigma(3 2)=  0.00000000E+00
  sigma(2 2)=  2.63704104E-04  sigma(3 1)=  0.00000000E+00
  sigma(3 3)=  2.27107191E-04  sigma(2 1)=  0.00000000E+00

 Integrated electronic density in atomic spheres:
 ------------------------------------------------
 Atom  Sphere_radius  Integrated_density
    1        2.00000          4.67215013
    2        2.00000          4.72780076
================================================================================

 ----iterations are completed or convergence reached----

 Mean square residual over all n,k,spin=   8.3052E-10; max=  5.3878E-09
 reduced coordinates (array xred) for    2 atoms
       0.000000000000      0.000000000000      0.000000000000
       0.666666666667      0.333333333333      0.000000000000
 rms dE/dt=  2.9084E-28; max dE/dt=  5.3853E-28; dE/dt below (all hartree)
    1      -0.000000000000      0.000000000000      0.000000000000
    2       0.000000000000     -0.000000000000      0.000000000000

 cartesian coordinates (angstrom) at end:
    1      0.00000000000000     0.00000000000000     0.00000000000000
    2      1.24707658145000     0.71999999999655     0.00000000000000

 cartesian forces (hartree/bohr) at end:
    1      0.00000000000000    -0.00000000000000    -0.00000000000000
    2     -0.00000000000000     0.00000000000000    -0.00000000000000
 frms,max,avg= 5.0383103E-29 8.5693604E-29   0.000E+00  0.000E+00  0.000E+00 h/b

 cartesian forces (eV/Angstrom) at end:
    1      0.00000000000000    -0.00000000000000    -0.00000000000000
    2     -0.00000000000000     0.00000000000000    -0.00000000000000
 frms,max,avg= 2.5908031E-27 4.4065419E-27   0.000E+00  0.000E+00  0.000E+00 e/A
 length scales=  4.713266411352  4.713266411352 18.897261328856 bohr
              =  2.494153162900  2.494153162900 10.000000000000 angstroms
 prteigrs : about to open file graphene_xo_DS7_EIG
 Fermi (or HOMO) energy (hartree) =  -0.10931   Average Vxc (hartree)=  -0.16076
 Eigenvalues (hartree) for nkpt=   2  k points:
 kpt#   1, nband=  5, wtk=  0.25000, kpt=  0.0000  0.0000  0.2500 (reduced coord)
  -0.72488   -0.29927   -0.12965   -0.12965    0.09138
 prteigrs : prtvol=0 or 1, do not print more k-points.


--------------------------------------------------------------------------------
 Components of total free energy (in Hartree) :

    Kinetic energy  =  8.42368117242812E+00
    Hartree energy  =  2.30750397313560E+01
    XC energy       = -4.26646396103658E+00
    Ewald energy    =  1.33771560373150E+01
    PspCore energy  =  4.07485580250182E-02
    Loc. psp. energy= -5.38710853717767E+01
    NL   psp  energy=  1.24438757024288E+00
    >>>>>>>>> Etotal= -1.19765362634463E+01

 Other information on the energy :
    Total energy(eV)= -3.25898125577849E+02 ; Band energy (Ha)=  -2.7333097462E+00
--------------------------------------------------------------------------------

 Cartesian components of stress tensor (hartree/bohr^3)
  sigma(1 1)=  2.63704104E-04  sigma(3 2)=  0.00000000E+00
  sigma(2 2)=  2.63704104E-04  sigma(3 1)=  0.00000000E+00
  sigma(3 3)=  2.27107191E-04  sigma(2 1)=  0.00000000E+00

-Cartesian components of stress tensor (GPa)         [Pressure= -7.3995E+00 GPa]
- sigma(1 1)=  7.75844129E+00  sigma(3 2)=  0.00000000E+00
- sigma(2 2)=  7.75844129E+00  sigma(3 1)=  0.00000000E+00
- sigma(3 3)=  6.68172311E+00  sigma(2 1)=  0.00000000E+00

================================================================================
== DATASET  8 ==================================================================
-   nproc =    1

 Exchange-correlation functional for the present dataset will be:
  LDA: new Teter (4/93) with spin-polarized option - ixc=1
 Citation for XC functional:
  S. Goedecker, M. Teter, J. Huetter, PRB 54, 1703 (1996)

 Real(R)+Recip(G) space primitive vectors, cartesian coordinates (Bohr,Bohr^-1):
 R(1)=  4.7132664  0.0000000  0.0000000  G(1)=  0.2121671  0.1224947  0.0000000
 R(2)= -2.3566332  4.0818084  0.0000000  G(2)=  0.0000000  0.2449894  0.0000000
 R(3)=  0.0000000  0.0000000 18.8972613  G(3)=  0.0000000  0.0000000  0.0529177
 Unit cell volume ucvol=  3.6355781E+02 bohr^3
 Angles (23,13,12)=  9.00000000E+01  9.00000000E+01  1.20000000E+02 degrees

 getcut: wavevector=  0.0000  0.0000  0.0000  ngfft=  20  20  80
         ecut(hartree)=     21.000   => boxcut(ratio)=   2.05218

--- Pseudopotential description ------------------------------------------------
- pspini: atom type   1  psp file is ./6c.pspnc
- pspatm: opening atomic psp file    ./6c.pspnc
-  Troullier-Martins psp for element  C         Thu Oct 27 17:29:33 EDT 1994
-  6.00000   4.00000    940714                znucl, zion, pspdat
    1    1    1    1      2001   0.00000      pspcod,pspxc,lmax,lloc,mmax,r2well
    0  10.372  24.987    1   1.4850707        l,e99.0,e99.9,nproj,rcpsp
   0.00000000   0.00000000   0.00000000   0.00000000     rms, ekb1, ekb2, epsatm
    1  15.431  21.987    0   1.4850707        l,e99.0,e99.9,nproj,rcpsp
   0.00000000   0.00000000   0.00000000   0.00000000     rms, ekb1, ekb2, epsatm
    0.83985002509544    0.99012430797080    0.51184907750884   rchrg,fchrg,qchrg
 pspatm: epsatm=    0.92590353
         --- l  ekb(1:nproj) -->
             0    4.921466
 pspatm: atomic psp has been read  and splines computed

--------------------------------------------------------------------------------

_setup2: Arith. and geom. avg. npw (full set) are    1668.750    1668.725

================================================================================

     iter   Etot(hartree)      deltaE(h)  residm     vres2
 ETOT  1  -11.963032242348    -1.196E+01 5.685E-02 8.775E+01
 ETOT  2  -11.987490038147    -2.446E-02 9.565E-06 6.724E+00
 ETOT  3  -11.987621435230    -1.314E-04 1.492E-06 2.259E+00
 ETOT  4  -11.987692305631    -7.087E-05 1.703E-06 7.676E-02
 ETOT  5  -11.987692820303    -5.147E-07 5.676E-08 5.421E-03
 ETOT  6  -11.987692868810    -4.851E-08 6.350E-09 2.508E-04

 At SCF step    6, etot is converged : 
  for the second time, diff in etot=  4.851E-08 < toldfe=  1.000E-06

 Cartesian components of stress tensor (hartree/bohr^3)
  sigma(1 1)=  1.64583339E-04  sigma(3 2)=  0.00000000E+00
  sigma(2 2)=  1.64583339E-04  sigma(3 1)=  0.00000000E+00
  sigma(3 3)=  1.39492900E-04  sigma(2 1)=  0.00000000E+00

 Integrated electronic density in atomic spheres:
 ------------------------------------------------
 Atom  Sphere_radius  Integrated_density
    1        2.00000          4.67126679
    2        2.00000          4.72679747
================================================================================

 ----iterations are completed or convergence reached----

 Mean square residual over all n,k,spin=   1.2063E-09; max=  6.3499E-09
 reduced coordinates (array xred) for    2 atoms
       0.000000000000      0.000000000000      0.000000000000
       0.666666666667      0.333333333333      0.000000000000
 rms dE/dt=  2.9273E-28; max dE/dt=  2.8129E-28; dE/dt below (all hartree)
    1      -0.000000000000      0.000000000000      0.000000000000
    2       0.000000000000     -0.000000000000      0.000000000000

 cartesian coordinates (angstrom) at end:
    1      0.00000000000000     0.00000000000000     0.00000000000000
    2      1.24707658145000     0.71999999999655     0.00000000000000

 cartesian forces (hartree/bohr) at end:
    1      0.00000000000000    -0.00000000000000    -0.00000000000000
    2     -0.00000000000000     0.00000000000000     0.00000000000000
 frms,max,avg= 3.8327688E-29 5.7129069E-29   0.000E+00  0.000E+00  0.000E+00 h/b

 cartesian forces (eV/Angstrom) at end:
    1      0.00000000000000    -0.00000000000000    -0.00000000000000
    2     -0.00000000000000     0.00000000000000     0.00000000000000
 frms,max,avg= 1.9708888E-27 2.9376946E-27   0.000E+00  0.000E+00  0.000E+00 e/A
 length scales=  4.713266411352  4.713266411352 18.897261328856 bohr
              =  2.494153162900  2.494153162900 10.000000000000 angstroms
 prteigrs : about to open file graphene_xo_DS8_EIG
 Fermi (or HOMO) energy (hartree) =  -0.10945   Average Vxc (hartree)=  -0.16033
 Eigenvalues (hartree) for nkpt=   2  k points:
 kpt#   1, nband=  5, wtk=  0.25000, kpt=  0.0000  0.0000  0.2500 (reduced coord)
  -0.72335   -0.29920   -0.13052   -0.13052    0.09153
 prteigrs : prtvol=0 or 1, do not print more k-points.


--------------------------------------------------------------------------------
 Components of total free energy (in Hartree) :

    Kinetic energy  =  8.46006266064879E+00
    Hartree energy  =  2.30838331665550E+01
    XC energy       = -4.26950810856791E+00
    Ewald energy    =  1.33771560373150E+01
    PspCore energy  =  4.07485580250182E-02
    Loc. psp. energy= -5.39209512822616E+01
    NL   psp  energy=  1.24096609947587E+00
    >>>>>>>>> Etotal= -1.19876928688099E+01

 Other information on the energy :
    Total energy(eV)= -3.26201712248970E+02 ; Band energy (Ha)=  -2.7311616955E+00
--------------------------------------------------------------------------------

 Cartesian components of stress tensor (hartree/bohr^3)
  sigma(1 1)=  1.64583339E-04  sigma(3 2)=  0.00000000E+00
  sigma(2 2)=  1.64583339E-04  sigma(3 1)=  0.00000000E+00
  sigma(3 3)=  1.39492900E-04  sigma(2 1)=  0.00000000E+00

-Cartesian components of stress tensor (GPa)         [Pressure= -4.5961E+00 GPa]
- sigma(1 1)=  4.84220819E+00  sigma(3 2)=  0.00000000E+00
- sigma(2 2)=  4.84220819E+00  sigma(3 1)=  0.00000000E+00
- sigma(3 3)=  4.10402211E+00  sigma(2 1)=  0.00000000E+00

================================================================================
== DATASET  9 ==================================================================
-   nproc =    1

 Exchange-correlation functional for the present dataset will be:
  LDA: new Teter (4/93) with spin-polarized option - ixc=1
 Citation for XC functional:
  S. Goedecker, M. Teter, J. Huetter, PRB 54, 1703 (1996)

 Real(R)+Recip(G) space primitive vectors, cartesian coordinates (Bohr,Bohr^-1):
 R(1)=  4.7132664  0.0000000  0.0000000  G(1)=  0.2121671  0.1224947  0.0000000
 R(2)= -2.3566332  4.0818084  0.0000000  G(2)=  0.0000000  0.2449894  0.0000000
 R(3)=  0.0000000  0.0000000 18.8972613  G(3)=  0.0000000  0.0000000  0.0529177
 Unit cell volume ucvol=  3.6355781E+02 bohr^3
 Angles (23,13,12)=  9.00000000E+01  9.00000000E+01  1.20000000E+02 degrees

 getcut: wavevector=  0.0000  0.0000  0.0000  ngfft=  24  24  90
         ecut(hartree)=     23.000   => boxcut(ratio)=   2.20605

 getcut : COMMENT -
  Note that boxcut > 2.2 ; recall that boxcut=Gcut(box)/Gcut(sphere) = 2
  is sufficient for exact treatment of convolution.
  Such a large boxcut is a waste : you could raise ecut
  e.g. ecut=   27.983178 Hartrees makes boxcut=2


--- Pseudopotential description ------------------------------------------------
- pspini: atom type   1  psp file is ./6c.pspnc
- pspatm: opening atomic psp file    ./6c.pspnc
-  Troullier-Martins psp for element  C         Thu Oct 27 17:29:33 EDT 1994
-  6.00000   4.00000    940714                znucl, zion, pspdat
    1    1    1    1      2001   0.00000      pspcod,pspxc,lmax,lloc,mmax,r2well
    0  10.372  24.987    1   1.4850707        l,e99.0,e99.9,nproj,rcpsp
   0.00000000   0.00000000   0.00000000   0.00000000     rms, ekb1, ekb2, epsatm
    1  15.431  21.987    0   1.4850707        l,e99.0,e99.9,nproj,rcpsp
   0.00000000   0.00000000   0.00000000   0.00000000     rms, ekb1, ekb2, epsatm
    0.83985002509544    0.99012430797080    0.51184907750884   rchrg,fchrg,qchrg
 pspatm: epsatm=    0.92590353
         --- l  ekb(1:nproj) -->
             0    4.921466
 pspatm: atomic psp has been read  and splines computed

--------------------------------------------------------------------------------

_setup2: Arith. and geom. avg. npw (full set) are    1919.750    1919.719

================================================================================

     iter   Etot(hartree)      deltaE(h)  residm     vres2
 ETOT  1  -11.966778974931    -1.197E+01 6.844E-02 1.490E+02
 ETOT  2  -11.993307575295    -2.653E-02 2.326E-05 1.123E+01
 ETOT  3  -11.993437851852    -1.303E-04 2.782E-06 3.990E+00
 ETOT  4  -11.993512738059    -7.489E-05 2.050E-06 1.169E-01
 ETOT  5  -11.993513148028    -4.100E-07 5.150E-08 1.050E-02
 ETOT  6  -11.993513180050    -3.202E-08 6.322E-09 1.757E-03

 At SCF step    6, etot is converged : 
  for the second time, diff in etot=  3.202E-08 < toldfe=  1.000E-06

 Cartesian components of stress tensor (hartree/bohr^3)
  sigma(1 1)=  9.57288364E-05  sigma(3 2)=  0.00000000E+00
  sigma(2 2)=  9.57288364E-05  sigma(3 1)=  0.00000000E+00
  sigma(3 3)=  7.67525147E-05  sigma(2 1)=  0.00000000E+00

 Integrated electronic density in atomic spheres:
 ------------------------------------------------
 Atom  Sphere_radius  Integrated_density
    1        2.00000          4.72027091
    2        2.00000          4.72027091
================================================================================

 ----iterations are completed or convergence reached----

 Mean square residual over all n,k,spin=   1.1711E-09; max=  6.3215E-09
 reduced coordinates (array xred) for    2 atoms
       0.000000000000      0.000000000000      0.000000000000
       0.666666666667      0.333333333333      0.000000000000
 rms dE/dt=  0.0000E+00; max dE/dt=  0.0000E+00; dE/dt below (all hartree)
    1       0.000000000000      0.000000000000      0.000000000000
    2       0.000000000000      0.000000000000      0.000000000000

 cartesian coordinates (angstrom) at end:
    1      0.00000000000000     0.00000000000000     0.00000000000000
    2      1.24707658145000     0.71999999999655     0.00000000000000

 cartesian forces (hartree/bohr) at end:
    1     -0.00000000000000    -0.00000000000000    -0.00000000000000
    2     -0.00000000000000    -0.00000000000000    -0.00000000000000
 frms,max,avg= 0.0000000E+00 0.0000000E+00   0.000E+00  0.000E+00  0.000E+00 h/b

 cartesian forces (eV/Angstrom) at end:
    1     -0.00000000000000    -0.00000000000000    -0.00000000000000
    2     -0.00000000000000    -0.00000000000000    -0.00000000000000
 frms,max,avg= 0.0000000E+00 0.0000000E+00   0.000E+00  0.000E+00  0.000E+00 e/A
 length scales=  4.713266411352  4.713266411352 18.897261328856 bohr
              =  2.494153162900  2.494153162900 10.000000000000 angstroms
 prteigrs : about to open file graphene_xo_DS9_EIG
 Fermi (or HOMO) energy (hartree) =  -0.10961   Average Vxc (hartree)=  -0.16006
 Eigenvalues (hartree) for nkpt=   2  k points:
 kpt#   1, nband=  5, wtk=  0.25000, kpt=  0.0000  0.0000  0.2500 (reduced coord)
  -0.72263   -0.29917   -0.13101   -0.13101    0.09165
 prteigrs : prtvol=0 or 1, do not print more k-points.


--------------------------------------------------------------------------------
 Components of total free energy (in Hartree) :

    Kinetic energy  =  8.48059254873935E+00
    Hartree energy  =  2.30890466148275E+01
    XC energy       = -4.27137318479737E+00
    Ewald energy    =  1.33771560373150E+01
    PspCore energy  =  4.07485580250182E-02
    Loc. psp. energy= -5.39491452188060E+01
    NL   psp  energy=  1.23946146464643E+00
    >>>>>>>>> Etotal= -1.19935131800500E+01

 Other information on the energy :
    Total energy(eV)= -3.26360090972310E+02 ; Band energy (Ha)=  -2.7304470376E+00
--------------------------------------------------------------------------------

 Cartesian components of stress tensor (hartree/bohr^3)
  sigma(1 1)=  9.57288364E-05  sigma(3 2)=  0.00000000E+00
  sigma(2 2)=  9.57288364E-05  sigma(3 1)=  0.00000000E+00
  sigma(3 3)=  7.67525147E-05  sigma(2 1)=  0.00000000E+00

-Cartesian components of stress tensor (GPa)         [Pressure= -2.6303E+00 GPa]
- sigma(1 1)=  2.81643913E+00  sigma(3 2)=  0.00000000E+00
- sigma(2 2)=  2.81643913E+00  sigma(3 1)=  0.00000000E+00
- sigma(3 3)=  2.25813656E+00  sigma(2 1)=  0.00000000E+00

================================================================================
== DATASET 10 ==================================================================
-   nproc =    1

 Exchange-correlation functional for the present dataset will be:
  LDA: new Teter (4/93) with spin-polarized option - ixc=1
 Citation for XC functional:
  S. Goedecker, M. Teter, J. Huetter, PRB 54, 1703 (1996)

 Real(R)+Recip(G) space primitive vectors, cartesian coordinates (Bohr,Bohr^-1):
 R(1)=  4.7132664  0.0000000  0.0000000  G(1)=  0.2121671  0.1224947  0.0000000
 R(2)= -2.3566332  4.0818084  0.0000000  G(2)=  0.0000000  0.2449894  0.0000000
 R(3)=  0.0000000  0.0000000 18.8972613  G(3)=  0.0000000  0.0000000  0.0529177
 Unit cell volume ucvol=  3.6355781E+02 bohr^3
 Angles (23,13,12)=  9.00000000E+01  9.00000000E+01  1.20000000E+02 degrees

 getcut: wavevector=  0.0000  0.0000  0.0000  ngfft=  24  24  90
         ecut(hartree)=     25.000   => boxcut(ratio)=   2.11597

--- Pseudopotential description ------------------------------------------------
- pspini: atom type   1  psp file is ./6c.pspnc
- pspatm: opening atomic psp file    ./6c.pspnc
-  Troullier-Martins psp for element  C         Thu Oct 27 17:29:33 EDT 1994
-  6.00000   4.00000    940714                znucl, zion, pspdat
    1    1    1    1      2001   0.00000      pspcod,pspxc,lmax,lloc,mmax,r2well
    0  10.372  24.987    1   1.4850707        l,e99.0,e99.9,nproj,rcpsp
   0.00000000   0.00000000   0.00000000   0.00000000     rms, ekb1, ekb2, epsatm
    1  15.431  21.987    0   1.4850707        l,e99.0,e99.9,nproj,rcpsp
   0.00000000   0.00000000   0.00000000   0.00000000     rms, ekb1, ekb2, epsatm
    0.83985002509544    0.99012430797080    0.51184907750884   rchrg,fchrg,qchrg
 pspatm: epsatm=    0.92590353
         --- l  ekb(1:nproj) -->
             0    4.921466
 pspatm: atomic psp has been read  and splines computed

--------------------------------------------------------------------------------

_setup2: Arith. and geom. avg. npw (full set) are    2176.750    2176.743

================================================================================

     iter   Etot(hartree)      deltaE(h)  residm     vres2
 ETOT  1  -11.977162714728    -1.198E+01 1.476E-02 1.427E+02
 ETOT  2  -11.995994433492    -1.883E-02 1.180E-05 1.139E+01
 ETOT  3  -11.996107460800    -1.130E-04 2.000E-06 4.284E+00
 ETOT  4  -11.996177817198    -7.036E-05 1.934E-06 7.143E-02
 ETOT  5  -11.996178271000    -4.538E-07 4.730E-08 4.335E-03
 ETOT  6  -11.996178278705    -7.705E-09 4.549E-09 2.967E-04

 At SCF step    6, etot is converged : 
  for the second time, diff in etot=  7.705E-09 < toldfe=  1.000E-06

 Cartesian components of stress tensor (hartree/bohr^3)
  sigma(1 1)=  5.70739114E-05  sigma(3 2)=  0.00000000E+00
  sigma(2 2)=  5.70739114E-05  sigma(3 1)=  0.00000000E+00
  sigma(3 3)=  4.11437692E-05  sigma(2 1)=  0.00000000E+00

 Integrated electronic density in atomic spheres:
 ------------------------------------------------
 Atom  Sphere_radius  Integrated_density
    1        2.00000          4.71888853
    2        2.00000          4.71888853
================================================================================

 ----iterations are completed or convergence reached----

 Mean square residual over all n,k,spin=   7.4903E-10; max=  4.5485E-09
 reduced coordinates (array xred) for    2 atoms
       0.000000000000      0.000000000000      0.000000000000
       0.666666666667      0.333333333333      0.000000000000
 rms dE/dt=  1.9040E-28; max dE/dt=  2.6926E-28; dE/dt below (all hartree)
    1       0.000000000000     -0.000000000000      0.000000000000
    2       0.000000000000      0.000000000000      0.000000000000

 cartesian coordinates (angstrom) at end:
    1      0.00000000000000     0.00000000000000     0.00000000000000
    2      1.24707658145000     0.71999999999655     0.00000000000000

 cartesian forces (hartree/bohr) at end:
    1     -0.00000000000000     0.00000000000000    -0.00000000000000
    2      0.00000000000000    -0.00000000000000    -0.00000000000000
 frms,max,avg= 3.2983483E-29 4.9475225E-29   0.000E+00  0.000E+00  0.000E+00 h/b

 cartesian forces (eV/Angstrom) at end:
    1     -0.00000000000000     0.00000000000000    -0.00000000000000
    2      0.00000000000000    -0.00000000000000    -0.00000000000000
 frms,max,avg= 1.6960788E-27 2.5441182E-27   0.000E+00  0.000E+00  0.000E+00 e/A
 length scales=  4.713266411352  4.713266411352 18.897261328856 bohr
              =  2.494153162900  2.494153162900 10.000000000000 angstroms
 prteigrs : about to open file graphene_xo_DS10_EIG
 Fermi (or HOMO) energy (hartree) =  -0.10983   Average Vxc (hartree)=  -0.15988
 Eigenvalues (hartree) for nkpt=   2  k points:
 kpt#   1, nband=  5, wtk=  0.25000, kpt=  0.0000  0.0000  0.2500 (reduced coord)
  -0.72253   -0.29929   -0.13151   -0.13151    0.09169
 prteigrs : prtvol=0 or 1, do not print more k-points.


--------------------------------------------------------------------------------
 Components of total free energy (in Hartree) :

    Kinetic energy  =  8.49025611729138E+00
    Hartree energy  =  2.30915570552045E+01
    XC energy       = -4.27233966800927E+00
    Ewald energy    =  1.33771560373150E+01
    PspCore energy  =  4.07485580250182E-02
    Loc. psp. energy= -5.39625934345326E+01
    NL   psp  energy=  1.23903705600079E+00
    >>>>>>>>> Etotal= -1.19961782787052E+01

 Other information on the energy :
    Total energy(eV)= -3.26432611994842E+02 ; Band energy (Ha)=  -2.7315776655E+00
--------------------------------------------------------------------------------

 Cartesian components of stress tensor (hartree/bohr^3)
  sigma(1 1)=  5.70739114E-05  sigma(3 2)=  0.00000000E+00
  sigma(2 2)=  5.70739114E-05  sigma(3 1)=  0.00000000E+00
  sigma(3 3)=  4.11437692E-05  sigma(2 1)=  0.00000000E+00

-Cartesian components of stress tensor (GPa)         [Pressure= -1.5229E+00 GPa]
- sigma(1 1)=  1.67917216E+00  sigma(3 2)=  0.00000000E+00
- sigma(2 2)=  1.67917216E+00  sigma(3 1)=  0.00000000E+00
- sigma(3 3)=  1.21049128E+00  sigma(2 1)=  0.00000000E+00

== END DATASET(S) ==============================================================
================================================================================
  
 -outvars: echo values of variables after computation  --------
            acell      4.7132664114E+00  4.7132664114E+00  1.8897261329E+01 Bohr
              amu      1.20110000E+01
           diemac      1.20000000E+01
             ecut1     7.00000000E+00 Hartree
             ecut2     9.00000000E+00 Hartree
             ecut3     1.10000000E+01 Hartree
             ecut4     1.30000000E+01 Hartree
             ecut5     1.50000000E+01 Hartree
             ecut6     1.70000000E+01 Hartree
             ecut7     1.90000000E+01 Hartree
             ecut8     2.10000000E+01 Hartree
             ecut9     2.30000000E+01 Hartree
             ecut10    2.50000000E+01 Hartree
           etotal1    -1.1413884843E+01
           etotal2    -1.1648053472E+01
           etotal3    -1.1798563769E+01
           etotal4    -1.1881455945E+01
           etotal5    -1.1925409606E+01
           etotal6    -1.1957561893E+01
           etotal7    -1.1976536263E+01
           etotal8    -1.1987692869E+01
           etotal9    -1.1993513180E+01
           etotal10   -1.1996178279E+01
            fcart1     0.0000000000E+00  0.0000000000E+00 -0.0000000000E+00
                       0.0000000000E+00  0.0000000000E+00 -0.0000000000E+00
            fcart2    -5.7129069061E-29 -9.8950450203E-29 -0.0000000000E+00
                       5.7129069061E-29  9.8950450203E-29 -0.0000000000E+00
            fcart3     2.5708081077E-28  1.4842567530E-28 -1.3459193853E-29
                      -2.5708081077E-28 -1.4842567530E-28  1.3459193853E-29
            fcart4    -8.5693603591E-29 -4.9475225101E-29 -0.0000000000E+00
                       8.5693603591E-29  4.9475225101E-29 -0.0000000000E+00
            fcart5    -5.7129069061E-29 -3.2983483401E-29 -0.0000000000E+00
                       5.7129069061E-29  3.2983483401E-29 -0.0000000000E+00
            fcart6    -2.8564534530E-29  4.9475225101E-29 -0.0000000000E+00
                       2.8564534530E-29 -4.9475225101E-29 -0.0000000000E+00
            fcart7     8.5693603591E-29 -1.6491741700E-29 -0.0000000000E+00
                      -8.5693603591E-29  1.6491741700E-29 -0.0000000000E+00
            fcart8     5.7129069061E-29 -3.2983483401E-29 -7.4427359136E-30
                      -5.7129069061E-29  3.2983483401E-29  7.4427359136E-30
            fcart9    -0.0000000000E+00 -0.0000000000E+00 -0.0000000000E+00
                      -0.0000000000E+00 -0.0000000000E+00 -0.0000000000E+00
            fcart10   -2.8564534530E-29  4.9475225101E-29 -0.0000000000E+00
                       2.8564534530E-29 -4.9475225101E-29 -0.0000000000E+00
-          fftalg         112
           jdtset        1    2    3    4    5    6    7    8    9   10
              kpt      0.00000000E+00  0.00000000E+00  2.50000000E-01
                       5.00000000E-01  0.00000000E+00  2.50000000E-01
         kptrlatt        2    0    0      0    2    0      0    0    2
          kptrlen      9.42653282E+00
P           mkmem           2
            natom           2
            nband           5
           ndtset          10
            ngfft1         12      12      48
            ngfft2         15      15      54
            ngfft3         16      16      60
            ngfft4         16      16      64
            ngfft5         18      18      72
            ngfft6         18      18      72
            ngfft7         20      20      80
            ngfft8         20      20      80
            ngfft9         24      24      90
            ngfft10        24      24      90
             nkpt           2
            nstep          10
             nsym          24
           ntypat           1
              occ      2.000000  2.000000  2.000000  2.000000  0.000000
            rprim      1.0000000000E+00  0.0000000000E+00  0.0000000000E+00
                      -5.0000000000E-01  8.6602540378E-01  0.0000000000E+00
                       0.0000000000E+00  0.0000000000E+00  1.0000000000E+00
           shiftk      0.00000000E+00  0.00000000E+00  5.00000000E-01
          spgroup         191
           strten1     7.4024635572E-04  7.4024635573E-04  1.4718832349E-03
                       0.0000000000E+00  0.0000000000E+00  0.0000000000E+00
           strten2     7.9155871581E-04  7.9155871582E-04  1.4206047412E-03
                       0.0000000000E+00  0.0000000000E+00  0.0000000000E+00
           strten3     7.4370824598E-04  7.4370824599E-04  1.1031298202E-03
                       0.0000000000E+00  0.0000000000E+00  0.0000000000E+00
           strten4     6.3113794921E-04  6.3113794922E-04  8.0718245697E-04
                       0.0000000000E+00  0.0000000000E+00  0.0000000000E+00
           strten5     5.4750360057E-04  5.4750360058E-04  5.1971362940E-04
                       0.0000000000E+00  0.0000000000E+00  0.0000000000E+00
           strten6     3.9343952999E-04  3.9343953000E-04  3.4314072946E-04
                       0.0000000000E+00  0.0000000000E+00  0.0000000000E+00
           strten7     2.6370410376E-04  2.6370410376E-04  2.2710719062E-04
                       0.0000000000E+00  0.0000000000E+00  0.0000000000E+00
           strten8     1.6458333886E-04  1.6458333887E-04  1.3949289974E-04
                       0.0000000000E+00  0.0000000000E+00  0.0000000000E+00
           strten9     9.5728836382E-05  9.5728836384E-05  7.6752514716E-05
                       0.0000000000E+00  0.0000000000E+00  0.0000000000E+00
           strten10    5.7073911427E-05  5.7073911429E-05  4.1143769246E-05
                       0.0000000000E+00  0.0000000000E+00  0.0000000000E+00
           symrel      1  0  0   0  1  0   0  0  1      -1  0  0   0 -1  0   0  0 -1
                       0  1  0   1  0  0   0  0  1       0 -1  0  -1  0  0   0  0 -1
                       1  1  0  -1  0  0   0  0  1      -1 -1  0   1  0  0   0  0 -1
                      -1  0  0   1  1  0   0  0  1       1  0  0  -1 -1  0   0  0 -1
                       0  1  0  -1 -1  0   0  0  1       0 -1  0   1  1  0   0  0 -1
                      -1 -1  0   0  1  0   0  0  1       1  1  0   0 -1  0   0  0 -1
                      -1  0  0   0 -1  0   0  0  1       1  0  0   0  1  0   0  0 -1
                       0 -1  0  -1  0  0   0  0  1       0  1  0   1  0  0   0  0 -1
                      -1 -1  0   1  0  0   0  0  1       1  1  0  -1  0  0   0  0 -1
                       1  0  0  -1 -1  0   0  0  1      -1  0  0   1  1  0   0  0 -1
                       0 -1  0   1  1  0   0  0  1       0  1  0  -1 -1  0   0  0 -1
                       1  1  0   0 -1  0   0  0  1      -1 -1  0   0  1  0   0  0 -1
            tnons      0.0000000  0.0000000  0.0000000    -0.3333333  0.3333333  0.0000000
                      -0.3333333  0.3333333  0.0000000     0.0000000  0.0000000  0.0000000
                      -0.3333333  0.3333333  0.0000000     0.0000000  0.0000000  0.0000000
                       0.0000000  0.0000000  0.0000000    -0.3333333  0.3333333  0.0000000
                       0.0000000  0.0000000  0.0000000    -0.3333333  0.3333333  0.0000000
                      -0.3333333  0.3333333  0.0000000     0.0000000  0.0000000  0.0000000
                      -0.3333333  0.3333333  0.0000000     0.0000000  0.0000000  0.0000000
                       0.0000000  0.0000000  0.0000000    -0.3333333  0.3333333  0.0000000
                       0.0000000  0.0000000  0.0000000    -0.3333333  0.3333333  0.0000000
                      -0.3333333  0.3333333  0.0000000     0.0000000  0.0000000  0.0000000
                      -0.3333333  0.3333333  0.0000000     0.0000000  0.0000000  0.0000000
                       0.0000000  0.0000000  0.0000000    -0.3333333  0.3333333  0.0000000
           toldfe      1.00000000E-06 Hartree
            typat      1  1
              wtk        0.25000    0.75000
           xangst      0.0000000000E+00  0.0000000000E+00  0.0000000000E+00
                       1.2470765814E+00  7.2000000000E-01  0.0000000000E+00
            xcart      0.0000000000E+00  0.0000000000E+00  0.0000000000E+00
                       2.3566332057E+00  1.3606028157E+00  0.0000000000E+00
             xred      0.0000000000E+00  0.0000000000E+00  0.0000000000E+00
                       6.6666666667E-01  3.3333333333E-01  0.0000000000E+00
            znucl        6.00000

================================================================================

- Total cpu        time (s,m,h):         20.9        0.35      0.006
- Total wall clock time (s,m,h):          8.3        0.14      0.002
-
- For major independent code sections, cpu and wall times (sec),
-  as well as % of the time and number of calls for node 0-
-<BEGIN_TIMER mpi_nprocs = 1, omp_nthreads = 1, mpi_rank = 0>
- cpu_time =           20.9, wall_time =            8.3
-
- routine                        cpu     %       wall     %      number of calls  Gflops    Speedup Efficacity
-                                                                  (-1=no count)
- fourwf%(pot)                   8.924  42.7      2.364  28.5           4322      -1.00        3.77       3.77
- pspini                         4.608  22.1      3.612  43.5             10      -1.00        1.28       1.28
- projbd                         1.232   5.9      0.293   3.5           6844      -1.00        4.20       4.20
- stress                         0.896   4.3      0.226   2.7             10      -1.00        3.96       3.96
- ewald2 (+vdw_dftd)             0.796   3.8      0.202   2.4             10      -1.00        3.94       3.94
- fourwf%(den)                   0.680   3.3      0.174   2.1            560      -1.00        3.91       3.91
- xc:pot/=fourdp                 0.504   2.4      0.140   1.7             80      -1.00        3.60       3.60
- fourdp                         0.460   2.2      0.134   1.6            360      -1.00        3.43       3.43
- nonlop(apply)                  0.388   1.9      0.146   1.8           4322      -1.00        2.66       2.66
- vtowfk(ssdiag)                 0.328   1.6      0.095   1.1             -1      -1.00        3.45       3.45
- symrhg(no FFT)                 0.276   1.3      0.067   0.8             70      -1.00        4.12       4.12
- invars2                        0.228   1.1      0.156   1.9             10      -1.00        1.46       1.46
- getghc-other                   0.200   1.0      0.060   0.7             -1      -1.00        3.33       3.33
- ewald                          0.184   0.9      0.189   2.3             10      -1.00        0.97       0.97
- abinit(2)                      0.144   0.7      0.046   0.6              1      -1.00        3.13       3.13
- others (98)                    0.392   1.9      0.138   1.7             -1      -1.00        2.84       2.84
-<END_TIMER>
-
- subtotal                      20.240  96.9      8.042  96.9                                  2.52       2.52

- For major independent code sections, cpu and wall times (sec),
- as well as % of the total time and number of calls 

-<BEGIN_TIMER mpi_nprocs = 1, omp_nthreads = 1, mpi_rank = world>
- cpu_time =          20.9, wall_time =           8.3
-
- routine                         cpu     %       wall     %      number of calls Gflops    Speedup Efficacity
-                                                                  (-1=no count)
- fourwf%(pot)                   8.924  42.7      2.364  28.5           4322      -1.00        3.77       3.77
- pspini                         4.608  22.1      3.612  43.5             10      -1.00        1.28       1.28
- projbd                         1.232   5.9      0.293   3.5           6844      -1.00        4.20       4.20
- stress                         0.896   4.3      0.226   2.7             10      -1.00        3.96       3.96
- ewald2 (+vdw_dftd)             0.796   3.8      0.202   2.4             10      -1.00        3.94       3.94
- fourwf%(den)                   0.680   3.3      0.174   2.1            560      -1.00        3.91       3.91
- xc:pot/=fourdp                 0.504   2.4      0.140   1.7             80      -1.00        3.60       3.60
- fourdp                         0.460   2.2      0.134   1.6            360      -1.00        3.43       3.43
- nonlop(apply)                  0.388   1.9      0.146   1.8           4322      -1.00        2.66       2.66
- vtowfk(ssdiag)                 0.328   1.6      0.095   1.1             -1      -1.00        3.45       3.45
- symrhg(no FFT)                 0.276   1.3      0.067   0.8             70      -1.00        4.12       4.12
- invars2                        0.228   1.1      0.156   1.9             10      -1.00        1.46       1.46
- getghc-other                   0.200   1.0      0.060   0.7             -1      -1.00        3.33       3.33
- ewald                          0.184   0.9      0.189   2.3             10      -1.00        0.97       0.97
- abinit(2)                      0.144   0.7      0.046   0.6              1      -1.00        3.13       3.13
- others (98)                    0.392   1.9      0.138   1.7             -1      -1.00        2.84       2.84
-<END_TIMER>

- subtotal                      20.240  96.9      8.042  96.9                                  2.52       2.52

================================================================================

 Suggested references for the acknowledgment of ABINIT usage.

 The users of ABINIT have little formal obligations with respect to the ABINIT group
 (those specified in the GNU General Public License, http://www.gnu.org/copyleft/gpl.txt).
 However, it is common practice in the scientific literature,
 to acknowledge the efforts of people that have made the research possible.
 In this spirit, please find below suggested citations of work written by ABINIT developers,
 corresponding to implementations inside of ABINIT that you have used in the present run.
 Note also that it will be of great value to readers of publications presenting these results,
 to read papers enabling them to understand the theoretical formalism and details
 of the ABINIT implementation.
 For information on why they are suggested, see also http://www.abinit.org/about/?text=acknowledgments.
-
- [1] Recent developments in the ABINIT software package.
- Computer Phys. Comm. 205, 106 (2016).
- X.Gonze, F.Jollet, F.Abreu Araujo, D.Adams, B.Amadon, T.Applencourt,
- C.Audouze, J.-M.Beuken, J.Bieder, A.Bokhanchuk, E.Bousquet, F.Bruneval
- D.Caliste, M.Cote, F.Dahm, F.Da Pieve, M.Delaveau, M.Di Gennaro,
- B.Dorado, C.Espejo, G.Geneste, L.Genovese, A.Gerossier, M.Giantomassi,
- Y.Gillet, D.R.Hamann, L.He, G.Jomard, J.Laflamme Janssen, S.Le Roux,
- A.Levitt, A.Lherbier, F.Liu, I.Lukacevic, A.Martin, C.Martins,
- M.J.T.Oliveira, S.Ponce, Y.Pouillon, T.Rangel, G.-M.Rignanese,
- A.H.Romero, B.Rousseau, O.Rubel, A.A.Shukri, M.Stankovski, M.Torrent,
- M.J.Van Setten, B.Van Troeye, M.J.Verstraete, D.Waroquier, J.Wiktor,
- B.Xue, A.Zhou, J.W.Zwanziger.
- Comment : the fourth generic paper describing the ABINIT project.
- Note that a version of this paper, that is not formatted for Computer Phys. Comm. 
- is available at http://www.abinit.org/about/ABINIT16.pdf .
- The licence allows the authors to put it on the Web.
-
- [2] ABINIT : First-principles approach of materials and nanosystem properties.
- Computer Phys. Comm. 180, 2582-2615 (2009).
- X. Gonze, B. Amadon, P.-M. Anglade, J.-M. Beuken, F. Bottin, P. Boulanger, F. Bruneval,
- D. Caliste, R. Caracas, M. Cote, T. Deutsch, L. Genovese, Ph. Ghosez, M. Giantomassi
- S. Goedecker, D.R. Hamann, P. Hermet, F. Jollet, G. Jomard, S. Leroux, M. Mancini, S. Mazevet,
- M.J.T. Oliveira, G. Onida, Y. Pouillon, T. Rangel, G.-M. Rignanese, D. Sangalli, R. Shaltaf,
- M. Torrent, M.J. Verstraete, G. Zerah, J.W. Zwanziger
- Comment : the third generic paper describing the ABINIT project.
- Note that a version of this paper, that is not formatted for Computer Phys. Comm. 
- is available at http://www.abinit.org/about/ABINIT_CPC_v10.pdf .
- The licence allows the authors to put it on the Web.
-
- [3] A brief introduction to the ABINIT software package.
- Z. Kristallogr. 220, 558-562 (2005).
- X. Gonze, G.-M. Rignanese, M. Verstraete, J.-M. Beuken, Y. Pouillon, R. Caracas, F. Jollet,
- M. Torrent, G. Zerah, M. Mikami, Ph. Ghosez, M. Veithen, J.-Y. Raty, V. Olevano, F. Bruneval,
- L. Reining, R. Godby, G. Onida, D.R. Hamann, and D.C. Allan.
- Comment : the second generic paper describing the ABINIT project. Note that this paper
- should be cited especially if you are using the GW part of ABINIT, as several authors
- of this part are not in the list of authors of the first or third paper.
- The .pdf of the latter paper is available at http://www.abinit.org/about/zfk_0505-06_558-562.pdf.
- Note that it should not redistributed (Copyright by Oldenburg Wissenshaftverlag,
- the licence allows the authors to put it on the Web).
-
- And optionally:
-
- [4] First-principles computation of material properties : the ABINIT software project. 
- X. Gonze, J.-M. Beuken, R. Caracas, F. Detraux, M. Fuchs, G.-M. Rignanese, L. Sindic,
- M. Verstraete, G. Zerah, F. Jollet, M. Torrent, A. Roy, M. Mikami, Ph. Ghosez, J.-Y. Raty, D.C. Allan.
- Computational Materials Science 25, 478-492 (2002). http://dx.doi.org/10.1016/S0927-0256(02)00325-7
- Comment : the original paper describing the ABINIT project.
-
- Proc.   0 individual time (sec): cpu=         20.9  wall=          8.3

================================================================================

 Calculation completed.
.Delivered  21 WARNINGs and   4 COMMENTs to log file.
+Overall time at end (sec) : cpu=         20.9  wall=          8.3
