
.Version 8.4.1 of ABINIT 
.(sequential version, prepared for a x86_64_linux_gnu7.0 computer) 

.Copyright (C) 1998-2017 ABINIT group . 
 ABINIT comes with ABSOLUTELY NO WARRANTY.
 It is free software, and you are welcome to redistribute it
 under certain conditions (GNU General Public License,
 see ~abinit/COPYING or http://www.gnu.org/copyleft/gpl.txt).

 ABINIT is a project of the Universite Catholique de Louvain,
 Corning Inc. and other collaborators, see ~abinit/doc/developers/contributors.txt .
 Please read ~abinit/doc/users/acknowledgments.html for suggested
 acknowledgments of the ABINIT effort.
 For more information, see http://www.abinit.org .

.Starting date : Mon  7 Aug 2017.
- ( at 11h34 )
  
- input  file    -> graphene.in
- output file    -> graphene.out
- root for input  files -> graphene_xi
- root for output files -> graphene_xo


 DATASET    1 : space group P6/m m m (#191); Bravais hP (primitive hexag.)
================================================================================
 Values of the parameters that define the memory need for DATASET  1.
     intxc =       0    ionmov =       3      iscf =       7    lmnmax =       1
     lnmax =       1     mgfft =      75  mpssoang =       2    mqgrid =    3683
     natom =       2  nloc_mem =       1    nspden =       1   nspinor =       1
    nsppol =       1      nsym =      24    n1xccc =    2501    ntypat =       1
    occopt =       1   xclevel =       1
-    mband =           5        mffmem =           1         mkmem =           2
       mpw =        1411          nfft =       30000          nkpt =           2
================================================================================
P This job should need less than                       9.361 Mbytes of memory.
  Rough estimation (10% accuracy) of disk space for files :
_ WF disk file :      0.217 Mbytes ; DEN or POT disk file :      0.231 Mbytes.
================================================================================


 DATASET    2 : space group P6/m m m (#191); Bravais hP (primitive hexag.)
================================================================================
 Values of the parameters that define the memory need for DATASET  2.
     intxc =       0    ionmov =       3      iscf =       7    lmnmax =       1
     lnmax =       1     mgfft =      75  mpssoang =       2    mqgrid =    3683
     natom =       2  nloc_mem =       1    nspden =       1   nspinor =       1
    nsppol =       1      nsym =      24    n1xccc =    2501    ntypat =       1
    occopt =       1   xclevel =       1
-    mband =           5        mffmem =           1         mkmem =           8
       mpw =        1428          nfft =       30000          nkpt =           8
================================================================================
P This job should need less than                      10.123 Mbytes of memory.
  Rough estimation (10% accuracy) of disk space for files :
_ WF disk file :      0.874 Mbytes ; DEN or POT disk file :      0.231 Mbytes.
================================================================================


 DATASET    3 : space group P6/m m m (#191); Bravais hP (primitive hexag.)
================================================================================
 Values of the parameters that define the memory need for DATASET  3.
     intxc =       0    ionmov =       3      iscf =       7    lmnmax =       1
     lnmax =       1     mgfft =      75  mpssoang =       2    mqgrid =    3683
     natom =       2  nloc_mem =       1    nspden =       1   nspinor =       1
    nsppol =       1      nsym =      24    n1xccc =    2501    ntypat =       1
    occopt =       1   xclevel =       1
-    mband =           5        mffmem =           1         mkmem =          21
       mpw =        1428          nfft =       30000          nkpt =          21
================================================================================
P This job should need less than                      11.762 Mbytes of memory.
  Rough estimation (10% accuracy) of disk space for files :
_ WF disk file :      2.290 Mbytes ; DEN or POT disk file :      0.231 Mbytes.
================================================================================

--------------------------------------------------------------------------------
------------- Echo of variables that govern the present computation ------------
--------------------------------------------------------------------------------
-
- outvars: echo of selected default values                                      
-   iomode0 =  0 , fftalg0 =112 , wfoptalg0 =  0
-
- outvars: echo of global parameters not present in the input file              
-  max_nthreads =    0
-
 -outvars: echo values of preprocessed input variables --------
            acell      4.7132664114E+00  4.7132664114E+00  1.8897261329E+01 Bohr
              amu      1.20110000E+01
           diemac      1.20000000E+01
          dilatmx      1.05000000E+00
             ecut      1.70000000E+01 Hartree
           ecutsm      5.00000000E-01 Hartree
-          fftalg         112
           ionmov           3
           jdtset        1    2    3
              kpt1     0.00000000E+00  0.00000000E+00  2.50000000E-01
                       5.00000000E-01  0.00000000E+00  2.50000000E-01
              kpt2     0.00000000E+00  0.00000000E+00  1.25000000E-01
                       2.50000000E-01  0.00000000E+00  1.25000000E-01
                       5.00000000E-01  0.00000000E+00  1.25000000E-01
                       2.50000000E-01  2.50000000E-01  1.25000000E-01
                       0.00000000E+00  0.00000000E+00  3.75000000E-01
                       2.50000000E-01  0.00000000E+00  3.75000000E-01
                       5.00000000E-01  0.00000000E+00  3.75000000E-01
                       2.50000000E-01  2.50000000E-01  3.75000000E-01
              kpt3     0.00000000E+00  0.00000000E+00  8.33333333E-02
                       1.66666667E-01  0.00000000E+00  8.33333333E-02
                       3.33333333E-01  0.00000000E+00  8.33333333E-02
                       5.00000000E-01  0.00000000E+00  8.33333333E-02
                       1.66666667E-01  1.66666667E-01  8.33333333E-02
                       3.33333333E-01  1.66666667E-01  8.33333333E-02
                       3.33333333E-01  3.33333333E-01  8.33333333E-02
                       0.00000000E+00  0.00000000E+00  2.50000000E-01
                       1.66666667E-01  0.00000000E+00  2.50000000E-01
                       3.33333333E-01  0.00000000E+00  2.50000000E-01
                       5.00000000E-01  0.00000000E+00  2.50000000E-01
                       1.66666667E-01  1.66666667E-01  2.50000000E-01
                       3.33333333E-01  1.66666667E-01  2.50000000E-01
                       3.33333333E-01  3.33333333E-01  2.50000000E-01
                       0.00000000E+00  0.00000000E+00  4.16666667E-01
                       1.66666667E-01  0.00000000E+00  4.16666667E-01
                       3.33333333E-01  0.00000000E+00  4.16666667E-01
                       5.00000000E-01  0.00000000E+00  4.16666667E-01
                       1.66666667E-01  1.66666667E-01  4.16666667E-01
                       3.33333333E-01  1.66666667E-01  4.16666667E-01
                       3.33333333E-01  3.33333333E-01  4.16666667E-01
         kptrlatt1       2    0    0      0    2    0      0    0    2
         kptrlatt2       4    0    0      0    4    0      0    0    4
         kptrlatt3       6    0    0      0    6    0      0    0    6
          kptrlen1     9.42653282E+00
          kptrlen2     1.88530656E+01
          kptrlen3     2.82795985E+01
P           mkmem1          2
P           mkmem2          8
P           mkmem3         21
            natom           2
            nband1          5
            nband2          5
            nband3          5
           ndtset           3
            ngfft          20      20      75
             nkpt1          2
             nkpt2          8
             nkpt3         21
            nstep          10
             nsym          24
            ntime          10
           ntypat           1
              occ1     2.000000  2.000000  2.000000  2.000000  0.000000
              occ2     2.000000  2.000000  2.000000  2.000000  0.000000
              occ3     2.000000  2.000000  2.000000  2.000000  0.000000
          optcell           1
            rprim      1.0000000000E+00  0.0000000000E+00  0.0000000000E+00
                      -5.0000000000E-01  8.6602540378E-01  0.0000000000E+00
                       0.0000000000E+00  0.0000000000E+00  1.0000000000E+00
           shiftk      0.00000000E+00  0.00000000E+00  5.00000000E-01
          spgroup         191
           symrel      1  0  0   0  1  0   0  0  1      -1  0  0   0 -1  0   0  0 -1
                       0  1  0   1  0  0   0  0  1       0 -1  0  -1  0  0   0  0 -1
                       1  1  0  -1  0  0   0  0  1      -1 -1  0   1  0  0   0  0 -1
                      -1  0  0   1  1  0   0  0  1       1  0  0  -1 -1  0   0  0 -1
                       0  1  0  -1 -1  0   0  0  1       0 -1  0   1  1  0   0  0 -1
                      -1 -1  0   0  1  0   0  0  1       1  1  0   0 -1  0   0  0 -1
                      -1  0  0   0 -1  0   0  0  1       1  0  0   0  1  0   0  0 -1
                       0 -1  0  -1  0  0   0  0  1       0  1  0   1  0  0   0  0 -1
                      -1 -1  0   1  0  0   0  0  1       1  1  0  -1  0  0   0  0 -1
                       1  0  0  -1 -1  0   0  0  1      -1  0  0   1  1  0   0  0 -1
                       0 -1  0   1  1  0   0  0  1       0  1  0  -1 -1  0   0  0 -1
                       1  1  0   0 -1  0   0  0  1      -1 -1  0   0  1  0   0  0 -1
            tnons      0.0000000  0.0000000  0.0000000    -0.3333333  0.3333333  0.0000000
                      -0.3333333  0.3333333  0.0000000     0.0000000  0.0000000  0.0000000
                      -0.3333333  0.3333333  0.0000000     0.0000000  0.0000000  0.0000000
                       0.0000000  0.0000000  0.0000000    -0.3333333  0.3333333  0.0000000
                       0.0000000  0.0000000  0.0000000    -0.3333333  0.3333333  0.0000000
                      -0.3333333  0.3333333  0.0000000     0.0000000  0.0000000  0.0000000
                      -0.3333333  0.3333333  0.0000000     0.0000000  0.0000000  0.0000000
                       0.0000000  0.0000000  0.0000000    -0.3333333  0.3333333  0.0000000
                       0.0000000  0.0000000  0.0000000    -0.3333333  0.3333333  0.0000000
                      -0.3333333  0.3333333  0.0000000     0.0000000  0.0000000  0.0000000
                      -0.3333333  0.3333333  0.0000000     0.0000000  0.0000000  0.0000000
                       0.0000000  0.0000000  0.0000000    -0.3333333  0.3333333  0.0000000
           toldfe      1.00000000E-06 Hartree
            typat      1  1
              wtk1       0.25000    0.75000
              wtk2       0.03125    0.18750    0.09375    0.18750    0.03125    0.18750
                         0.09375    0.18750
              wtk3       0.00926    0.05556    0.05556    0.02778    0.05556    0.11111
                         0.01852    0.00926    0.05556    0.05556    0.02778    0.05556
                         0.11111    0.01852    0.00926    0.05556    0.05556    0.02778
                         0.05556    0.11111    0.01852
           xangst      0.0000000000E+00  0.0000000000E+00  0.0000000000E+00
                       1.2470765814E+00  7.2000000000E-01  0.0000000000E+00
            xcart      0.0000000000E+00  0.0000000000E+00  0.0000000000E+00
                       2.3566332057E+00  1.3606028157E+00  0.0000000000E+00
             xred      0.0000000000E+00  0.0000000000E+00  0.0000000000E+00
                       6.6666666667E-01  3.3333333333E-01  0.0000000000E+00
            znucl        6.00000

================================================================================

 chkinp: Checking input parameters for consistency, jdtset=   1.

 chkinp: Checking input parameters for consistency, jdtset=   2.

 chkinp: Checking input parameters for consistency, jdtset=   3.

================================================================================
== DATASET  1 ==================================================================
-   nproc =    1

 Exchange-correlation functional for the present dataset will be:
  LDA: new Teter (4/93) with spin-polarized option - ixc=1
 Citation for XC functional:
  S. Goedecker, M. Teter, J. Huetter, PRB 54, 1703 (1996)

 Real(R)+Recip(G) space primitive vectors, cartesian coordinates (Bohr,Bohr^-1):
 R(1)=  4.7132664  0.0000000  0.0000000  G(1)=  0.2121671  0.1224947  0.0000000
 R(2)= -2.3566332  4.0818084  0.0000000  G(2)=  0.0000000  0.2449894  0.0000000
 R(3)=  0.0000000  0.0000000 18.8972613  G(3)=  0.0000000  0.0000000  0.0529177
 Unit cell volume ucvol=  3.6355781E+02 bohr^3
 Angles (23,13,12)=  9.00000000E+01  9.00000000E+01  1.20000000E+02 degrees

 getcut: wavevector=  0.0000  0.0000  0.0000  ngfft=  20  20  75
         ecut(hartree)=     18.743   => boxcut(ratio)=   2.00934

--- Pseudopotential description ------------------------------------------------
- pspini: atom type   1  psp file is ./6c.pspnc
- pspatm: opening atomic psp file    ./6c.pspnc
-  Troullier-Martins psp for element  C         Thu Oct 27 17:29:33 EDT 1994
-  6.00000   4.00000    940714                znucl, zion, pspdat
    1    1    1    1      2001   0.00000      pspcod,pspxc,lmax,lloc,mmax,r2well
    0  10.372  24.987    1   1.4850707        l,e99.0,e99.9,nproj,rcpsp
   0.00000000   0.00000000   0.00000000   0.00000000     rms, ekb1, ekb2, epsatm
    1  15.431  21.987    0   1.4850707        l,e99.0,e99.9,nproj,rcpsp
   0.00000000   0.00000000   0.00000000   0.00000000     rms, ekb1, ekb2, epsatm
    0.83985002509544    0.99012430797080    0.51184907750884   rchrg,fchrg,qchrg
 pspatm: epsatm=    0.92590353
         --- l  ekb(1:nproj) -->
             0    4.921466
 pspatm: atomic psp has been read  and splines computed

   1.48144565E+01                                ecore*ucvol(ha*bohr**3)
--------------------------------------------------------------------------------

_setup2: Arith. and geom. avg. npw (full set) are    1407.250    1407.248

================================================================================

=== [ionmov= 3] Broyden-Fletcher-Goldfard-Shanno method (forces,Tot energy) 
================================================================================

--- Iteration: ( 1/10) Internal Cycle: (1/1)
--------------------------------------------------------------------------------

---SELF-CONSISTENT-FIELD CONVERGENCE--------------------------------------------

     iter   Etot(hartree)      deltaE(h)  residm     vres2
 ETOT  1  -11.927416065944    -1.193E+01 6.202E-02 5.905E+01
 ETOT  2  -11.952860283170    -2.544E-02 1.105E-05 8.214E+00
 ETOT  3  -11.953185908827    -3.256E-04 4.949E-06 1.804E+00
 ETOT  4  -11.953233494892    -4.759E-05 9.513E-07 1.188E-01
 ETOT  5  -11.953235502527    -2.008E-06 9.471E-08 2.561E-03
 ETOT  6  -11.953235540812    -3.829E-08 7.870E-09 3.401E-04
 ETOT  7  -11.953235549871    -9.059E-09 1.034E-09 8.486E-05

 At SCF step    7, etot is converged : 
  for the second time, diff in etot=  9.059E-09 < toldfe=  1.000E-06

 Cartesian components of stress tensor (hartree/bohr^3)
  sigma(1 1)= -5.98564159E-05  sigma(3 2)=  0.00000000E+00
  sigma(2 2)= -5.98564159E-05  sigma(3 1)=  0.00000000E+00
  sigma(3 3)= -2.47491655E-04  sigma(2 1)=  0.00000000E+00

 Integrated electronic density in atomic spheres:
 ------------------------------------------------
 Atom  Sphere_radius  Integrated_density
    1        2.00000          4.72432278
    2        2.00000          4.73654439

---OUTPUT-----------------------------------------------------------------------

 Cartesian coordinates (xcart) [bohr]
  0.00000000000000E+00  0.00000000000000E+00  0.00000000000000E+00
  2.35663320567576E+00  1.36060281567114E+00  0.00000000000000E+00
 Reduced coordinates (xred)
  0.00000000000000E+00  0.00000000000000E+00  0.00000000000000E+00
  6.66666666666667E-01  3.33333333333333E-01  0.00000000000000E+00
 Cartesian forces (fcart) [Ha/bohr]; max,rms= 4.94752E-29 3.30512E-29 (free atoms)
  2.85645345303352E-29 -4.94752251013497E-29 -3.66396896515406E-30
 -2.85645345303352E-29  4.94752251013497E-29  3.66396896515406E-30
 Reduced forces (fred)
 -1.34632261157719E-28  2.69264522315439E-28  6.92389790353359E-29
  1.34632261157719E-28 -2.69264522315439E-28 -6.92389790353359E-29
 Scale of Primitive Cell (acell) [bohr]
  4.71326641135151E+00  4.71326641135151E+00  1.88972613288564E+01
 Real space primitive translations (rprimd) [bohr]
  4.71326641135151E+00  0.00000000000000E+00  0.00000000000000E+00
 -2.35663320567576E+00  4.08180844701341E+00  0.00000000000000E+00
  0.00000000000000E+00  0.00000000000000E+00  1.88972613288564E+01
 Unitary Cell Volume (ucvol) [Bohr^3]=  3.63557808964237E+02
 Angles (23,13,12)= [degrees]
  9.00000000000000E+01  9.00000000000000E+01  1.20000000000127E+02
 Lengths [Bohr]
  4.71326641135151E+00  4.71326641133339E+00  1.88972613288564E+01
 Stress tensor in cartesian coordinates (strten) [Ha/bohr^3]
 -5.98564159270710E-05  0.00000000000000E+00  0.00000000000000E+00
  0.00000000000000E+00 -5.98564159265357E-05  0.00000000000000E+00
  0.00000000000000E+00  0.00000000000000E+00 -2.47491654773145E-04
 Total energy (etotal) [Ha]= -1.19532355498708E+01

--- Iteration: ( 2/10) Internal Cycle: (1/1)
--------------------------------------------------------------------------------

---SELF-CONSISTENT-FIELD CONVERGENCE--------------------------------------------

     iter   Etot(hartree)      deltaE(h)  residm     vres2
 ETOT  1  -11.952582199434    -1.195E+01 2.063E-07 5.642E+01
 ETOT  2  -11.953581490537    -9.993E-04 2.131E-08 2.742E+01
 ETOT  3  -11.953719245794    -1.378E-04 2.007E-06 1.133E+01
 ETOT  4  -11.953767928063    -4.868E-05 4.266E-06 7.219E-01
 ETOT  5  -11.953768814327    -8.863E-07 2.851E-07 3.743E-02
 ETOT  6  -11.953768891236    -7.691E-08 9.199E-09 1.421E-03

 At SCF step    6, etot is converged : 
  for the second time, diff in etot=  7.691E-08 < toldfe=  1.000E-06

 Cartesian components of stress tensor (hartree/bohr^3)
  sigma(1 1)= -1.81508342E-04  sigma(3 2)=  0.00000000E+00
  sigma(2 2)= -1.81508342E-04  sigma(3 1)=  0.00000000E+00
  sigma(3 3)= -1.25442724E-05  sigma(2 1)=  0.00000000E+00

 Integrated electronic density in atomic spheres:
 ------------------------------------------------
 Atom  Sphere_radius  Integrated_density
    1        2.00000          4.66851465
    2        2.00000          4.74032765

---OUTPUT-----------------------------------------------------------------------

 Cartesian coordinates (xcart) [bohr]
  2.86694247827146E-29 -4.96569003476906E-29 -3.67742322358272E-30
  2.36528686854033E+00  1.36559901025545E+00  3.67742322358272E-30
 Reduced coordinates (xred)
 -6.21223635204478E-41 -1.21209081081573E-29 -1.93888886934062E-31
  6.66666666666667E-01  3.33333333333333E-01  1.93888886934062E-31
 Cartesian forces (fcart) [Ha/bohr]; max,rms= 1.80745E-28 1.05639E-28 (free atoms)
  2.84600280305119E-29 -1.80745453291090E-28 -0.00000000000000E+00
 -2.84600280305119E-29  1.80745453291090E-28 -0.00000000000000E+00
 Reduced forces (fred)
 -1.34632261157719E-28  8.07793566946316E-28 -0.00000000000000E+00
  1.34632261157719E-28 -8.07793566946316E-28 -0.00000000000000E+00
 Scale of Primitive Cell (acell) [bohr]
  4.73057373708067E+00  4.73057373708067E+00  1.89666529203056E+01
 Real space primitive translations (rprimd) [bohr]
  4.73057373708067E+00  0.00000000000000E+00  0.00000000000000E+00
 -2.36528686854033E+00  4.09679703076635E+00  0.00000000000000E+00
  0.00000000000000E+00  0.00000000000000E+00  1.89666529203056E+01
 Unitary Cell Volume (ucvol) [Bohr^3]=  3.67577535269411E+02
 Angles (23,13,12)= [degrees]
  9.00000000000000E+01  9.00000000000000E+01  1.20000000000127E+02
 Lengths [Bohr]
  4.73057373708067E+00  4.73057373706248E+00  1.89666529203056E+01
 Stress tensor in cartesian coordinates (strten) [Ha/bohr^3]
 -1.81508341550591E-04  0.00000000000000E+00  0.00000000000000E+00
  0.00000000000000E+00 -1.81508341551327E-04  0.00000000000000E+00
  0.00000000000000E+00  0.00000000000000E+00 -1.25442724135174E-05
 Total energy (etotal) [Ha]= -1.19537688912362E+01

 Difference of energy with previous step (new-old):
           Absolute (Ha)=-5.33341E-04
           Relative     =-4.46180E-05

--- Iteration: ( 3/10) Internal Cycle: (1/1)
--------------------------------------------------------------------------------

---SELF-CONSISTENT-FIELD CONVERGENCE--------------------------------------------

     iter   Etot(hartree)      deltaE(h)  residm     vres2
 ETOT  1  -11.951311190861    -1.195E+01 4.850E-07 1.265E+02
 ETOT  2  -11.953677439428    -2.366E-03 4.529E-08 6.092E+01
 ETOT  3  -11.953987976626    -3.105E-04 4.677E-06 2.566E+01
 ETOT  4  -11.954102440037    -1.145E-04 9.514E-06 1.668E+00
 ETOT  5  -11.954104317187    -1.877E-06 7.192E-07 8.569E-02
 ETOT  6  -11.954104548983    -2.318E-07 2.397E-08 3.349E-03
 ETOT  7  -11.954104555154    -6.171E-09 3.482E-10 1.455E-04

 At SCF step    7, etot is converged : 
  for the second time, diff in etot=  6.171E-09 < toldfe=  1.000E-06

 Cartesian components of stress tensor (hartree/bohr^3)
  sigma(1 1)= -4.26015798E-05  sigma(3 2)=  0.00000000E+00
  sigma(2 2)= -4.26015798E-05  sigma(3 1)=  0.00000000E+00
  sigma(3 3)=  1.86176851E-04  sigma(2 1)=  0.00000000E+00

 Integrated electronic density in atomic spheres:
 ------------------------------------------------
 Atom  Sphere_radius  Integrated_density
    1        2.00000          4.63929022
    2        2.00000          4.67878937

---OUTPUT-----------------------------------------------------------------------

 Cartesian coordinates (xcart) [bohr]
  1.00893660565018E-28 -3.89387870970899E-28 -3.28910539406972E-30
  2.37826736283720E+00  1.37309330213192E+00  3.28910539406972E-30
 Reduced coordinates (xred)
 -2.60524812089515E-29 -9.45281407962395E-29 -1.72468679298191E-31
  6.66666666666667E-01  3.33333333333333E-01  1.72468679298191E-31
 Cartesian forces (fcart) [Ha/bohr]; max,rms= 6.53669E-29 3.77396E-29 (free atoms)
 -0.00000000000000E+00  6.53668914067645E-29 -0.00000000000000E+00
 -0.00000000000000E+00 -6.53668914067645E-29 -0.00000000000000E+00
 Reduced forces (fred)
 -0.00000000000000E+00 -2.69264522315439E-28 -0.00000000000000E+00
  0.00000000000000E+00  2.69264522315439E-28  0.00000000000000E+00
 Scale of Primitive Cell (acell) [bohr]
  4.75653472567440E+00  4.75653472567440E+00  1.90707403074793E+01
 Real space primitive translations (rprimd) [bohr]
  4.75653472567440E+00  0.00000000000000E+00  0.00000000000000E+00
 -2.37826736283720E+00  4.11927990639576E+00  0.00000000000000E+00
  0.00000000000000E+00  0.00000000000000E+00  1.90707403074793E+01
 Unitary Cell Volume (ucvol) [Bohr^3]=  3.73662510538763E+02
 Angles (23,13,12)= [degrees]
  9.00000000000000E+01  9.00000000000000E+01  1.20000000000127E+02
 Lengths [Bohr]
  4.75653472567440E+00  4.75653472565611E+00  1.90707403074793E+01
 Stress tensor in cartesian coordinates (strten) [Ha/bohr^3]
 -4.26015797532459E-05  0.00000000000000E+00  0.00000000000000E+00
  0.00000000000000E+00 -4.26015797525950E-05  0.00000000000000E+00
  0.00000000000000E+00  0.00000000000000E+00  1.86176850889630E-04
 Total energy (etotal) [Ha]= -1.19541045551537E+01

 Difference of energy with previous step (new-old):
           Absolute (Ha)=-3.35664E-04
           Relative     =-2.80798E-05

--- Iteration: ( 4/10) Internal Cycle: (1/1)
--------------------------------------------------------------------------------

---SELF-CONSISTENT-FIELD CONVERGENCE--------------------------------------------

     iter   Etot(hartree)      deltaE(h)  residm     vres2
 ETOT  1  -11.954063956673    -1.195E+01 4.173E-06 3.170E+00
 ETOT  2  -11.954114527732    -5.057E-05 1.349E-09 1.589E+00
 ETOT  3  -11.954122317252    -7.790E-06 1.253E-07 6.335E-01
 ETOT  4  -11.954124811534    -2.494E-06 1.877E-07 4.052E-02
 ETOT  5  -11.954124873949    -6.241E-08 1.304E-08 2.176E-03
 ETOT  6  -11.954124876241    -2.293E-09 4.213E-10 8.530E-05

 At SCF step    6, etot is converged : 
  for the second time, diff in etot=  2.293E-09 < toldfe=  1.000E-06

 Cartesian components of stress tensor (hartree/bohr^3)
  sigma(1 1)= -8.69102468E-05  sigma(3 2)=  0.00000000E+00
  sigma(2 2)= -8.69102468E-05  sigma(3 1)=  0.00000000E+00
  sigma(3 3)=  1.89134076E-04  sigma(2 1)=  0.00000000E+00

 Integrated electronic density in atomic spheres:
 ------------------------------------------------
 Atom  Sphere_radius  Integrated_density
    1        2.00000          4.63844555
    2        2.00000          4.67790259

---OUTPUT-----------------------------------------------------------------------

 Cartesian coordinates (xcart) [bohr]
  8.45053180383404E-29 -3.47202163480115E-28 -3.35059623064230E-30
  2.37615840701240E+00  1.37187569591877E+00  3.35059623064230E-30
 Reduced coordinates (xred)
 -2.43990350493806E-29 -8.43619103667132E-29 -1.75848970371564E-31
  6.66666666666667E-01  3.33333333333333E-01  1.75848970371564E-31
 Cartesian forces (fcart) [Ha/bohr]; max,rms= 0.00000E+00 0.00000E+00 (free atoms)
  0.00000000000000E+00  0.00000000000000E+00 -0.00000000000000E+00
  0.00000000000000E+00  0.00000000000000E+00 -0.00000000000000E+00
 Reduced forces (fred)
 -0.00000000000000E+00 -0.00000000000000E+00 -0.00000000000000E+00
 -0.00000000000000E+00 -0.00000000000000E+00 -0.00000000000000E+00
 Scale of Primitive Cell (acell) [bohr]
  4.75231681402480E+00  4.75231681402480E+00  1.90538291100744E+01
 Real space primitive translations (rprimd) [bohr]
  4.75231681402480E+00  0.00000000000000E+00  0.00000000000000E+00
 -2.37615840701240E+00  4.11562708775632E+00  0.00000000000000E+00
  0.00000000000000E+00  0.00000000000000E+00  1.90538291100744E+01
 Unitary Cell Volume (ucvol) [Bohr^3]=  3.72669343228620E+02
 Angles (23,13,12)= [degrees]
  9.00000000000000E+01  9.00000000000000E+01  1.20000000000127E+02
 Lengths [Bohr]
  4.75231681402480E+00  4.75231681400654E+00  1.90538291100744E+01
 Stress tensor in cartesian coordinates (strten) [Ha/bohr^3]
 -8.69102467729296E-05  0.00000000000000E+00  0.00000000000000E+00
  0.00000000000000E+00 -8.69102467727270E-05  0.00000000000000E+00
  0.00000000000000E+00  0.00000000000000E+00  1.89134076344294E-04
 Total energy (etotal) [Ha]= -1.19541248762413E+01

 Difference of energy with previous step (new-old):
           Absolute (Ha)=-2.03211E-05
           Relative     =-1.69992E-06

--- Iteration: ( 5/10) Internal Cycle: (1/1)
--------------------------------------------------------------------------------

---SELF-CONSISTENT-FIELD CONVERGENCE--------------------------------------------

     iter   Etot(hartree)      deltaE(h)  residm     vres2
 ETOT  1  -11.954123960852    -1.195E+01 3.185E-09 6.826E-02
 ETOT  2  -11.954125074838    -1.114E-06 2.579E-11 3.403E-02
 ETOT  3  -11.954125242357    -1.675E-07 2.653E-09 1.369E-02
 ETOT  4  -11.954125297143    -5.479E-08 4.241E-09 8.798E-04

 At SCF step    4, etot is converged : 
  for the second time, diff in etot=  5.479E-08 < toldfe=  1.000E-06

 Cartesian components of stress tensor (hartree/bohr^3)
  sigma(1 1)= -9.35718018E-05  sigma(3 2)=  0.00000000E+00
  sigma(2 2)= -9.35718018E-05  sigma(3 1)=  0.00000000E+00
  sigma(3 3)=  1.89346803E-04  sigma(2 1)=  0.00000000E+00

 Integrated electronic density in atomic spheres:
 ------------------------------------------------
 Atom  Sphere_radius  Integrated_density
    1        2.00000          4.63830695
    2        2.00000          4.67775762

---OUTPUT-----------------------------------------------------------------------

 Cartesian coordinates (xcart) [bohr]
  8.17074924183209E-29 -3.53890760447951E-28 -3.35935443875007E-30
  2.37585056233087E+00  1.37169796170902E+00  3.35935443875007E-30
 Reduced coordinates (xred)
 -2.58036922302854E-29 -8.59982227202635E-29 -1.76331471169856E-31
  6.66666666666667E-01  3.33333333333333E-01  1.76331471169856E-31
 Cartesian forces (fcart) [Ha/bohr]; max,rms= 0.00000E+00 0.00000E+00 (free atoms)
  0.00000000000000E+00  0.00000000000000E+00 -0.00000000000000E+00
  0.00000000000000E+00  0.00000000000000E+00 -0.00000000000000E+00
 Reduced forces (fred)
 -0.00000000000000E+00 -0.00000000000000E+00 -0.00000000000000E+00
 -0.00000000000000E+00 -0.00000000000000E+00 -0.00000000000000E+00
 Scale of Primitive Cell (acell) [bohr]
  4.75170112466173E+00  4.75170112466173E+00  1.90513605793833E+01
 Real space primitive translations (rprimd) [bohr]
  4.75170112466173E+00  0.00000000000000E+00  0.00000000000000E+00
 -2.37585056233087E+00  4.11509388512706E+00  0.00000000000000E+00
  0.00000000000000E+00  0.00000000000000E+00  1.90513605793833E+01
 Unitary Cell Volume (ucvol) [Bohr^3]=  3.72524517766968E+02
 Angles (23,13,12)= [degrees]
  9.00000000000000E+01  9.00000000000000E+01  1.20000000000127E+02
 Lengths [Bohr]
  4.75170112466173E+00  4.75170112464347E+00  1.90513605793833E+01
 Stress tensor in cartesian coordinates (strten) [Ha/bohr^3]
 -9.35718018194590E-05  0.00000000000000E+00  0.00000000000000E+00
  0.00000000000000E+00 -9.35718018193240E-05  0.00000000000000E+00
  0.00000000000000E+00  0.00000000000000E+00  1.89346802718381E-04
 Total energy (etotal) [Ha]= -1.19541252971425E+01

 Difference of energy with previous step (new-old):
           Absolute (Ha)=-4.20901E-07
           Relative     =-3.52097E-08

--- Iteration: ( 6/10) Internal Cycle: (1/1)
--------------------------------------------------------------------------------

---SELF-CONSISTENT-FIELD CONVERGENCE--------------------------------------------

     iter   Etot(hartree)      deltaE(h)  residm     vres2
 ETOT  1  -11.954125252914    -1.195E+01 9.863E-11 2.366E-03
 ETOT  2  -11.954125294696    -4.178E-08 1.063E-12 1.159E-03
 ETOT  3  -11.954125300383    -5.688E-09 8.569E-11 4.824E-04

 At SCF step    3, etot is converged : 
  for the second time, diff in etot=  5.688E-09 < toldfe=  1.000E-06

 Cartesian components of stress tensor (hartree/bohr^3)
  sigma(1 1)= -9.47325658E-05  sigma(3 2)=  0.00000000E+00
  sigma(2 2)= -9.47325658E-05  sigma(3 1)=  0.00000000E+00
  sigma(3 3)=  1.88154158E-04  sigma(2 1)=  0.00000000E+00

 Integrated electronic density in atomic spheres:
 ------------------------------------------------
 Atom  Sphere_radius  Integrated_density
    1        2.00000          4.63834064
    2        2.00000          4.67779104

---OUTPUT-----------------------------------------------------------------------

 Cartesian coordinates (xcart) [bohr]
  8.10879931974698E-29 -3.55315677634335E-28 -3.36092895624040E-30
  2.37579557110343E+00  1.37166621250905E+00  3.36092895624040E-30
 Reduced coordinates (xred)
 -2.61078037272885E-29 -8.63464873096181E-29 -1.76418200464022E-31
  6.66666666666667E-01  3.33333333333333E-01  1.76418200464022E-31
 Cartesian forces (fcart) [Ha/bohr]; max,rms= 2.45381E-28 1.49930E-28 (free atoms)
 -8.50024278994615E-29 -2.45380873148887E-28 -0.00000000000000E+00
  8.50024278994615E-29  2.45380873148887E-28 -0.00000000000000E+00
 Reduced forces (fred)
  4.03896783473158E-28  8.07793566946316E-28  0.00000000000000E+00
 -4.03896783473158E-28 -8.07793566946316E-28 -0.00000000000000E+00
 Scale of Primitive Cell (acell) [bohr]
  4.75159114220686E+00  4.75159114220686E+00  1.90509196182727E+01
 Real space primitive translations (rprimd) [bohr]
  4.75159114220686E+00  0.00000000000000E+00  0.00000000000000E+00
 -2.37579557110343E+00  4.11499863752716E+00  0.00000000000000E+00
  0.00000000000000E+00  0.00000000000000E+00  1.90509196182727E+01
 Unitary Cell Volume (ucvol) [Bohr^3]=  3.72498651106849E+02
 Angles (23,13,12)= [degrees]
  9.00000000000000E+01  9.00000000000000E+01  1.20000000000127E+02
 Lengths [Bohr]
  4.75159114220686E+00  4.75159114218859E+00  1.90509196182727E+01
 Stress tensor in cartesian coordinates (strten) [Ha/bohr^3]
 -9.47325657916351E-05  0.00000000000000E+00  0.00000000000000E+00
  0.00000000000000E+00 -9.47325657915117E-05  0.00000000000000E+00
  0.00000000000000E+00  0.00000000000000E+00  1.88154158491918E-04
 Total energy (etotal) [Ha]= -1.19541253003833E+01

 Difference of energy with previous step (new-old):
           Absolute (Ha)=-3.24077E-09
           Relative     =-2.71101E-10

 At Broyd/MD step   6, gradients are converged : 
  max grad (force/stress) = 4.3699E-05 < tolmxf= 5.0000E-05 ha/bohr (free atoms)

================================================================================

 ----iterations are completed or convergence reached----

 Mean square residual over all n,k,spin=   1.4829E-11; max=  8.5688E-11
 reduced coordinates (array xred) for    2 atoms
      -0.000000000000     -0.000000000000     -0.000000000000
       0.666666666667      0.333333333333      0.000000000000
 rms dE/dt=  5.2719E-28; max dE/dt=  8.0779E-28; dE/dt below (all hartree)
    1       0.000000000000      0.000000000000      0.000000000000
    2      -0.000000000000     -0.000000000000      0.000000000000

 cartesian coordinates (angstrom) at end:
    1      0.00000000000000    -0.00000000000000    -0.00000000000000
    2      1.25721686849700     0.72585449745276     0.00000000000000

 cartesian forces (hartree/bohr) at end:
    1     -0.00000000000000    -0.00000000000000    -0.00000000000000
    2      0.00000000000000     0.00000000000000    -0.00000000000000
 frms,max,avg= 1.4993019E-28 2.4538087E-28   0.000E+00  0.000E+00  0.000E+00 h/b

 cartesian forces (eV/Angstrom) at end:
    1     -0.00000000000000    -0.00000000000000    -0.00000000000000
    2      0.00000000000000     0.00000000000000    -0.00000000000000
 frms,max,avg= 7.7097197E-27 1.2617991E-26   0.000E+00  0.000E+00  0.000E+00 e/A
 length scales=  4.751591142207  4.751591142207 19.050919618273 bohr
              =  2.514433736994  2.514433736994 10.081312464670 angstroms
 prteigrs : about to open file graphene_xo_DS1_EIG
 Fermi (or HOMO) energy (hartree) =  -0.11145   Average Vxc (hartree)=  -0.15943
 Eigenvalues (hartree) for nkpt=   2  k points:
 kpt#   1, nband=  5, wtk=  0.25000, kpt=  0.0000  0.0000  0.2500 (reduced coord)
  -0.72500   -0.29757   -0.13343   -0.13343    0.08910
 prteigrs : prtvol=0 or 1, do not print more k-points.


--------------------------------------------------------------------------------
 Components of total free energy (in Hartree) :

    Kinetic energy  =  8.28565626622147E+00
    Hartree energy  =  2.29274586261162E+01
    XC energy       = -4.24215282450785E+00
    Ewald energy    =  1.32692604104830E+01
    PspCore energy  =  3.97704969669226E-02
    Loc. psp. energy= -5.34811296181323E+01
    NL   psp  energy=  1.24701134246924E+00
    >>>>>>>>> Etotal= -1.19541253003833E+01

 Other information on the energy :
    Total energy(eV)= -3.25288292259268E+02 ; Band energy (Ha)=  -2.7448948201E+00
--------------------------------------------------------------------------------

 Cartesian components of stress tensor (hartree/bohr^3)
  sigma(1 1)= -9.47325658E-05  sigma(3 2)=  0.00000000E+00
  sigma(2 2)= -9.47325658E-05  sigma(3 1)=  0.00000000E+00
  sigma(3 3)=  1.88154158E-04  sigma(2 1)=  0.00000000E+00

-Cartesian components of stress tensor (GPa)         [Pressure=  1.2857E-02 GPa]
- sigma(1 1)= -2.78712784E+00  sigma(3 2)=  0.00000000E+00
- sigma(2 2)= -2.78712784E+00  sigma(3 1)=  0.00000000E+00
- sigma(3 3)=  5.53568553E+00  sigma(2 1)=  0.00000000E+00

================================================================================
== DATASET  2 ==================================================================
-   nproc =    1

 Exchange-correlation functional for the present dataset will be:
  LDA: new Teter (4/93) with spin-polarized option - ixc=1
 Citation for XC functional:
  S. Goedecker, M. Teter, J. Huetter, PRB 54, 1703 (1996)

 Real(R)+Recip(G) space primitive vectors, cartesian coordinates (Bohr,Bohr^-1):
 R(1)=  4.7132664  0.0000000  0.0000000  G(1)=  0.2121671  0.1224947  0.0000000
 R(2)= -2.3566332  4.0818084  0.0000000  G(2)=  0.0000000  0.2449894  0.0000000
 R(3)=  0.0000000  0.0000000 18.8972613  G(3)=  0.0000000  0.0000000  0.0529177
 Unit cell volume ucvol=  3.6355781E+02 bohr^3
 Angles (23,13,12)=  9.00000000E+01  9.00000000E+01  1.20000000E+02 degrees

 getcut: wavevector=  0.0000  0.0000  0.0000  ngfft=  20  20  75
         ecut(hartree)=     18.743   => boxcut(ratio)=   2.00934
--------------------------------------------------------------------------------

_setup2: Arith. and geom. avg. npw (full set) are    1411.375    1411.317

================================================================================

=== [ionmov= 3] Broyden-Fletcher-Goldfard-Shanno method (forces,Tot energy) 
================================================================================

--- Iteration: ( 1/10) Internal Cycle: (1/1)
--------------------------------------------------------------------------------

---SELF-CONSISTENT-FIELD CONVERGENCE--------------------------------------------

     iter   Etot(hartree)      deltaE(h)  residm     vres2
 ETOT  1  -12.012866239559    -1.201E+01 2.463E-01 5.239E+01
 ETOT  2  -12.031727259005    -1.886E-02 3.168E-05 4.966E+00
 ETOT  3  -12.031825770657    -9.851E-05 4.828E-06 1.680E+00
 ETOT  4  -12.031877933204    -5.216E-05 5.420E-06 1.153E-01
 ETOT  5  -12.031878191623    -2.584E-07 8.080E-07 3.495E-02
 ETOT  6  -12.031878131648     5.998E-08 9.859E-08 1.686E-02

 At SCF step    6, etot is converged : 
  for the second time, diff in etot=  5.998E-08 < toldfe=  1.000E-06

 Cartesian components of stress tensor (hartree/bohr^3)
  sigma(1 1)=  2.12591022E-04  sigma(3 2)=  0.00000000E+00
  sigma(2 2)=  2.12591022E-04  sigma(3 1)=  0.00000000E+00
  sigma(3 3)= -1.43092353E-05  sigma(2 1)=  0.00000000E+00

 Integrated electronic density in atomic spheres:
 ------------------------------------------------
 Atom  Sphere_radius  Integrated_density
    1        2.00000          4.68548245
    2        2.00000          4.69595673

---OUTPUT-----------------------------------------------------------------------

 Cartesian coordinates (xcart) [bohr]
  0.00000000000000E+00  0.00000000000000E+00  0.00000000000000E+00
  2.35663320567576E+00  1.36060281567114E+00  0.00000000000000E+00
 Reduced coordinates (xred)
  0.00000000000000E+00  0.00000000000000E+00  0.00000000000000E+00
  6.66666666666667E-01  3.33333333333333E-01  0.00000000000000E+00
 Cartesian forces (fcart) [Ha/bohr]; max,rms= 1.14258E-28 7.61721E-29 (free atoms)
 -1.14258138121341E-28 -6.59669668017996E-29 -0.00000000000000E+00
  1.14258138121341E-28  6.59669668017996E-29 -0.00000000000000E+00
 Reduced forces (fred)
  5.38529044630877E-28 -4.48415508583941E-44  0.00000000000000E+00
 -5.38529044630877E-28  4.48415508583941E-44 -0.00000000000000E+00
 Scale of Primitive Cell (acell) [bohr]
  4.71326641135151E+00  4.71326641135151E+00  1.88972613288564E+01
 Real space primitive translations (rprimd) [bohr]
  4.71326641135151E+00  0.00000000000000E+00  0.00000000000000E+00
 -2.35663320567576E+00  4.08180844701341E+00  0.00000000000000E+00
  0.00000000000000E+00  0.00000000000000E+00  1.88972613288564E+01
 Unitary Cell Volume (ucvol) [Bohr^3]=  3.63557808964237E+02
 Angles (23,13,12)= [degrees]
  9.00000000000000E+01  9.00000000000000E+01  1.20000000000127E+02
 Lengths [Bohr]
  4.71326641135151E+00  4.71326641133339E+00  1.88972613288564E+01
 Stress tensor in cartesian coordinates (strten) [Ha/bohr^3]
  2.12591021559415E-04  0.00000000000000E+00  0.00000000000000E+00
  0.00000000000000E+00  2.12591021562742E-04  0.00000000000000E+00
  0.00000000000000E+00  0.00000000000000E+00 -1.43092352577842E-05
 Total energy (etotal) [Ha]= -1.20318781316477E+01

--- Iteration: ( 2/10) Internal Cycle: (1/1)
--------------------------------------------------------------------------------

---SELF-CONSISTENT-FIELD CONVERGENCE--------------------------------------------

     iter   Etot(hartree)      deltaE(h)  residm     vres2
 ETOT  1  -12.031170757095    -1.203E+01 8.779E-03 6.979E+01
 ETOT  2  -12.032268118370    -1.097E-03 5.459E-06 3.466E+01
 ETOT  3  -12.032433168678    -1.651E-04 1.653E-05 1.375E+01
 ETOT  4  -12.032490113346    -5.694E-05 2.302E-05 8.744E-01
 ETOT  5  -12.032491736984    -1.624E-06 3.467E-06 4.632E-02
 ETOT  6  -12.032491772703    -3.572E-08 4.016E-07 1.774E-03
 ETOT  7  -12.032491780938    -8.235E-09 1.562E-08 2.829E-05

 At SCF step    7, etot is converged : 
  for the second time, diff in etot=  8.235E-09 < toldfe=  1.000E-06

 Cartesian components of stress tensor (hartree/bohr^3)
  sigma(1 1)=  1.95278583E-04  sigma(3 2)=  0.00000000E+00
  sigma(2 2)=  1.95278583E-04  sigma(3 1)=  0.00000000E+00
  sigma(3 3)=  1.26801946E-05  sigma(2 1)=  0.00000000E+00

 Integrated electronic density in atomic spheres:
 ------------------------------------------------
 Atom  Sphere_radius  Integrated_density
    1        2.00000          4.69514725
    2        2.00000          4.71170740

---OUTPUT-----------------------------------------------------------------------

 Cartesian coordinates (xcart) [bohr]
 -1.13788682501028E-28 -6.56959264730381E-29  0.00000000000000E+00
  2.34695044065253E+00  1.35501246867851E+00  0.00000000000000E+00
 Reduced coordinates (xred)
 -3.23224216215043E-29 -1.61612108108764E-29  0.00000000000000E+00
  6.66666666666667E-01  3.33333333333333E-01  0.00000000000000E+00
 Cartesian forces (fcart) [Ha/bohr]; max,rms= 1.32478E-28 1.01182E-28 (free atoms)
 -1.14729530565023E-28 -1.32478250712110E-28 -0.00000000000000E+00
  1.14729530565023E-28  1.32478250712110E-28 -0.00000000000000E+00
 Reduced forces (fred)
  5.38529044630877E-28  2.69264522315439E-28  0.00000000000000E+00
 -5.38529044630877E-28 -2.69264522315439E-28 -0.00000000000000E+00
 Scale of Primitive Cell (acell) [bohr]
  4.69390088130506E+00  4.69390088130506E+00  1.88196176206251E+01
 Real space primitive translations (rprimd) [bohr]
  4.69390088130506E+00  0.00000000000000E+00  0.00000000000000E+00
 -2.34695044065253E+00  4.06503740603552E+00  0.00000000000000E+00
  0.00000000000000E+00  0.00000000000000E+00  1.88196176206251E+01
 Unitary Cell Volume (ucvol) [Bohr^3]=  3.59094915576559E+02
 Angles (23,13,12)= [degrees]
  9.00000000000000E+01  9.00000000000000E+01  1.20000000000127E+02
 Lengths [Bohr]
  4.69390088130506E+00  4.69390088128702E+00  1.88196176206251E+01
 Stress tensor in cartesian coordinates (strten) [Ha/bohr^3]
  1.95278582893926E-04  0.00000000000000E+00  0.00000000000000E+00
  0.00000000000000E+00  1.95278582897106E-04  0.00000000000000E+00
  0.00000000000000E+00  0.00000000000000E+00  1.26801946420428E-05
 Total energy (etotal) [Ha]= -1.20324917809383E+01

 Difference of energy with previous step (new-old):
           Absolute (Ha)=-6.13649E-04
           Relative     =-5.10007E-05

--- Iteration: ( 3/10) Internal Cycle: (1/1)
--------------------------------------------------------------------------------

---SELF-CONSISTENT-FIELD CONVERGENCE--------------------------------------------

     iter   Etot(hartree)      deltaE(h)  residm     vres2
 ETOT  1  -12.030358787613    -1.203E+01 1.672E-01 1.578E+02
 ETOT  2  -12.032733352798    -2.375E-03 9.207E-06 7.882E+01
 ETOT  3  -12.033104326616    -3.710E-04 1.005E-04 3.062E+01
 ETOT  4  -12.033226795699    -1.225E-04 3.950E-05 1.918E+00
 ETOT  5  -12.033230629466    -3.834E-06 5.655E-06 1.037E-01
 ETOT  6  -12.033230699845    -7.038E-08 6.050E-07 3.846E-03
 ETOT  7  -12.033230730337    -3.049E-08 4.057E-08 9.502E-05

 At SCF step    7, etot is converged : 
  for the second time, diff in etot=  3.049E-08 < toldfe=  1.000E-06

 Cartesian components of stress tensor (hartree/bohr^3)
  sigma(1 1)=  1.23873972E-04  sigma(3 2)=  0.00000000E+00
  sigma(2 2)=  1.23873972E-04  sigma(3 1)=  0.00000000E+00
  sigma(3 3)= -5.13559512E-06  sigma(2 1)=  0.00000000E+00

 Integrated electronic density in atomic spheres:
 ------------------------------------------------
 Atom  Sphere_radius  Integrated_density
    1        2.00000          4.74180424
    2        2.00000          4.77776122

---OUTPUT-----------------------------------------------------------------------

 Cartesian coordinates (xcart) [bohr]
 -1.67933798251573E-28 -1.28623881273250E-28  0.00000000000000E+00
  2.33242629311769E+00  1.34662694818956E+00  0.00000000000000E+00
 Reduced coordinates (xred)
 -5.19190748800777E-29 -3.18385334176813E-29  0.00000000000000E+00
  6.66666666666667E-01  3.33333333333333E-01  0.00000000000000E+00
 Cartesian forces (fcart) [Ha/bohr]; max,rms= 8.33145E-29 5.09060E-29 (free atoms)
 -2.88609894243989E-29 -8.33145000667052E-29 -0.00000000000000E+00
  2.88609894243989E-29  8.33145000667052E-29 -0.00000000000000E+00
 Reduced forces (fred)
  1.34632261157719E-28  2.69264522315439E-28  0.00000000000000E+00
 -1.34632261157719E-28 -2.69264522315439E-28 -0.00000000000000E+00
 Scale of Primitive Cell (acell) [bohr]
  4.66485258623539E+00  4.66485258623539E+00  1.87031520582781E+01
 Real space primitive translations (rprimd) [bohr]
  4.66485258623539E+00  0.00000000000000E+00  0.00000000000000E+00
 -2.33242629311769E+00  4.03988084456868E+00  0.00000000000000E+00
  0.00000000000000E+00  0.00000000000000E+00  1.87031520582781E+01
 Unitary Cell Volume (ucvol) [Bohr^3]=  3.52469290882033E+02
 Angles (23,13,12)= [degrees]
  9.00000000000000E+01  9.00000000000000E+01  1.20000000000127E+02
 Lengths [Bohr]
  4.66485258623539E+00  4.66485258621746E+00  1.87031520582781E+01
 Stress tensor in cartesian coordinates (strten) [Ha/bohr^3]
  1.23873971683111E-04  0.00000000000000E+00  0.00000000000000E+00
  0.00000000000000E+00  1.23873971685604E-04  0.00000000000000E+00
  0.00000000000000E+00  0.00000000000000E+00 -5.13559511630745E-06
 Total energy (etotal) [Ha]= -1.20332307303366E+01

 Difference of energy with previous step (new-old):
           Absolute (Ha)=-7.38949E-04
           Relative     =-6.14109E-05

--- Iteration: ( 4/10) Internal Cycle: (1/1)
--------------------------------------------------------------------------------

---SELF-CONSISTENT-FIELD CONVERGENCE--------------------------------------------

     iter   Etot(hartree)      deltaE(h)  residm     vres2
 ETOT  1  -12.031863673304    -1.203E+01 3.647E-04 8.541E+01
 ETOT  2  -12.033188615404    -1.325E-03 4.464E-07 4.212E+01
 ETOT  3  -12.033388245417    -1.996E-04 1.692E-05 1.651E+01
 ETOT  4  -12.033456246485    -6.800E-05 2.458E-05 1.024E+00
 ETOT  5  -12.033458178458    -1.932E-06 3.383E-06 5.343E-02
 ETOT  6  -12.033458217608    -3.915E-08 3.546E-07 1.918E-03
 ETOT  7  -12.033458228246    -1.064E-08 2.698E-08 3.299E-05

 At SCF step    7, etot is converged : 
  for the second time, diff in etot=  1.064E-08 < toldfe=  1.000E-06

 Cartesian components of stress tensor (hartree/bohr^3)
  sigma(1 1)=  2.50137988E-05  sigma(3 2)=  0.00000000E+00
  sigma(2 2)=  2.50137988E-05  sigma(3 1)=  0.00000000E+00
  sigma(3 3)= -1.01536084E-05  sigma(2 1)=  0.00000000E+00

 Integrated electronic density in atomic spheres:
 ------------------------------------------------
 Atom  Sphere_radius  Integrated_density
    1        2.00000          4.77873599
    2        2.00000          4.80479880

---OUTPUT-----------------------------------------------------------------------

 Cartesian coordinates (xcart) [bohr]
 -1.45414561884592E-28 -1.77139955885505E-28  0.00000000000000E+00
  2.32191255333676E+00  1.34055683769688E+00  0.00000000000000E+00
 Reduced coordinates (xred)
 -5.33367121737438E-29 -4.40463621544604E-29  0.00000000000000E+00
  6.66666666666667E-01  3.33333333333333E-01  0.00000000000000E+00
 Cartesian forces (fcart) [Ha/bohr]; max,rms= 2.17599E-28 1.50955E-28 (free atoms)
 -1.44958367364269E-28 -2.17598556290644E-28 -0.00000000000000E+00
  1.44958367364269E-28  2.17598556290644E-28 -0.00000000000000E+00
 Reduced forces (fred)
  6.73161305788597E-28  5.38529044630877E-28  0.00000000000000E+00
 -6.73161305788597E-28 -5.38529044630877E-28 -0.00000000000000E+00
 Scale of Primitive Cell (acell) [bohr]
  4.64382510667352E+00  4.64382510667352E+00  1.86188449681015E+01
 Real space primitive translations (rprimd) [bohr]
  4.64382510667352E+00  0.00000000000000E+00  0.00000000000000E+00
 -2.32191255333676E+00  4.02167051309063E+00  0.00000000000000E+00
  0.00000000000000E+00  0.00000000000000E+00  1.86188449681015E+01
 Unitary Cell Volume (ucvol) [Bohr^3]=  3.47724329079843E+02
 Angles (23,13,12)= [degrees]
  9.00000000000000E+01  9.00000000000000E+01  1.20000000000127E+02
 Lengths [Bohr]
  4.64382510667352E+00  4.64382510665567E+00  1.86188449681015E+01
 Stress tensor in cartesian coordinates (strten) [Ha/bohr^3]
  2.50137988367997E-05  0.00000000000000E+00  0.00000000000000E+00
  0.00000000000000E+00  2.50137988383120E-05  0.00000000000000E+00
  0.00000000000000E+00  0.00000000000000E+00 -1.01536084164165E-05
 Total energy (etotal) [Ha]= -1.20334582282456E+01

 Difference of energy with previous step (new-old):
           Absolute (Ha)=-2.27498E-04
           Relative     =-1.89056E-05

--- Iteration: ( 5/10) Internal Cycle: (1/1)
--------------------------------------------------------------------------------

---SELF-CONSISTENT-FIELD CONVERGENCE--------------------------------------------

     iter   Etot(hartree)      deltaE(h)  residm     vres2
 ETOT  1  -12.033413110397    -1.203E+01 3.537E-07 2.589E+00
 ETOT  2  -12.033456508741    -4.340E-05 1.202E-08 1.249E+00
 ETOT  3  -12.033462550476    -6.042E-06 4.009E-07 5.036E-01
 ETOT  4  -12.033464759650    -2.209E-06 8.404E-07 3.140E-02
 ETOT  5  -12.033464809077    -4.943E-08 1.196E-07 1.522E-03
 ETOT  6  -12.033464810826    -1.750E-09 1.659E-08 5.503E-05

 At SCF step    6, etot is converged : 
  for the second time, diff in etot=  1.750E-09 < toldfe=  1.000E-06

 Cartesian components of stress tensor (hartree/bohr^3)
  sigma(1 1)=  5.14873342E-06  sigma(3 2)=  0.00000000E+00
  sigma(2 2)=  5.14873342E-06  sigma(3 1)=  0.00000000E+00
  sigma(3 3)= -2.01983257E-06  sigma(2 1)=  0.00000000E+00

 Integrated electronic density in atomic spheres:
 ------------------------------------------------
 Atom  Sphere_radius  Integrated_density
    1        2.00000          4.79147069
    2        2.00000          4.80400391

---OUTPUT-----------------------------------------------------------------------

 Cartesian coordinates (xcart) [bohr]
 -3.01330909589392E-28 -4.17569817569651E-28  0.00000000000000E+00
  2.32011362903820E+00  1.33951822826886E+00  0.00000000000000E+00
 Reduced coordinates (xred)
 -1.16894049795911E-28 -1.03910447989773E-28  0.00000000000000E+00
  6.66666666666667E-01  3.33333333333333E-01  0.00000000000000E+00
 Cartesian forces (fcart) [Ha/bohr]; max,rms= 0.00000E+00 0.00000E+00 (free atoms)
 -0.00000000000000E+00 -0.00000000000000E+00 -0.00000000000000E+00
 -0.00000000000000E+00 -0.00000000000000E+00 -0.00000000000000E+00
 Reduced forces (fred)
  0.00000000000000E+00 -0.00000000000000E+00  0.00000000000000E+00
  0.00000000000000E+00 -0.00000000000000E+00  0.00000000000000E+00
 Scale of Primitive Cell (acell) [bohr]
  4.64022725807640E+00  4.64022725807640E+00  1.86044198371567E+01
 Real space primitive translations (rprimd) [bohr]
  4.64022725807640E+00  0.00000000000000E+00  0.00000000000000E+00
 -2.32011362903820E+00  4.01855468480658E+00  0.00000000000000E+00
  0.00000000000000E+00  0.00000000000000E+00  1.86044198371567E+01
 Unitary Cell Volume (ucvol) [Bohr^3]=  3.46916746683428E+02
 Angles (23,13,12)= [degrees]
  9.00000000000000E+01  9.00000000000000E+01  1.20000000000127E+02
 Lengths [Bohr]
  4.64022725807640E+00  4.64022725805856E+00  1.86044198371567E+01
 Stress tensor in cartesian coordinates (strten) [Ha/bohr^3]
  5.14873342010314E-06  0.00000000000000E+00  0.00000000000000E+00
  0.00000000000000E+00  5.14873342141766E-06  0.00000000000000E+00
  0.00000000000000E+00  0.00000000000000E+00 -2.01983256616887E-06
 Total energy (etotal) [Ha]= -1.20334648108264E+01

 Difference of energy with previous step (new-old):
           Absolute (Ha)=-6.58258E-06
           Relative     =-5.47023E-07

--- Iteration: ( 6/10) Internal Cycle: (1/1)
--------------------------------------------------------------------------------

---SELF-CONSISTENT-FIELD CONVERGENCE--------------------------------------------

     iter   Etot(hartree)      deltaE(h)  residm     vres2
 ETOT  1  -12.033462464004    -1.203E+01 2.151E-08 1.291E-01
 ETOT  2  -12.033464668286    -2.204E-06 4.824E-10 6.194E-02
 ETOT  3  -12.033464968556    -3.003E-07 2.062E-08 2.516E-02
 ETOT  4  -12.033465080361    -1.118E-07 4.284E-08 1.576E-03

 At SCF step    4, etot is converged : 
  for the second time, diff in etot=  1.118E-07 < toldfe=  1.000E-06

 Cartesian components of stress tensor (hartree/bohr^3)
  sigma(1 1)=  7.49455182E-07  sigma(3 2)=  0.00000000E+00
  sigma(2 2)=  7.49455183E-07  sigma(3 1)=  0.00000000E+00
  sigma(3 3)= -4.58765271E-08  sigma(2 1)=  0.00000000E+00

 Integrated electronic density in atomic spheres:
 ------------------------------------------------
 Atom  Sphere_radius  Integrated_density
    1        2.00000          4.79128220
    2        2.00000          4.81905216

---OUTPUT-----------------------------------------------------------------------

 Cartesian coordinates (xcart) [bohr]
 -2.97239946442208E-28 -4.11622452751768E-28  0.00000000000000E+00
  2.31971396763013E+00  1.33928748364733E+00  0.00000000000000E+00
 Reduced coordinates (xred)
 -1.15292292025686E-28 -1.02448119560505E-28  0.00000000000000E+00
  6.66666666666667E-01  3.33333333333333E-01  0.00000000000000E+00
 Cartesian forces (fcart) [Ha/bohr]; max,rms= 1.00525E-28 6.70169E-29 (free atoms)
 -5.80383025823061E-29 -1.00525288858125E-28 -0.00000000000000E+00
  5.80383025823061E-29  1.00525288858125E-28 -0.00000000000000E+00
 Reduced forces (fred)
  2.69264522315439E-28  2.69264522315439E-28  0.00000000000000E+00
 -2.69264522315439E-28 -2.69264522315439E-28 -0.00000000000000E+00
 Scale of Primitive Cell (acell) [bohr]
  4.63942793526026E+00  4.63942793526026E+00  1.86012150507466E+01
 Real space primitive translations (rprimd) [bohr]
  4.63942793526026E+00  0.00000000000000E+00  0.00000000000000E+00
 -2.31971396763013E+00  4.01786245094198E+00  0.00000000000000E+00
  0.00000000000000E+00  0.00000000000000E+00  1.86012150507466E+01
 Unitary Cell Volume (ucvol) [Bohr^3]=  3.46737498540412E+02
 Angles (23,13,12)= [degrees]
  9.00000000000000E+01  9.00000000000000E+01  1.20000000000127E+02
 Lengths [Bohr]
  4.63942793526026E+00  4.63942793524243E+00  1.86012150507466E+01
 Stress tensor in cartesian coordinates (strten) [Ha/bohr^3]
  7.49455181572314E-07  0.00000000000000E+00  0.00000000000000E+00
  0.00000000000000E+00  7.49455182843080E-07  0.00000000000000E+00
  0.00000000000000E+00  0.00000000000000E+00 -4.58765271094163E-08
 Total energy (etotal) [Ha]= -1.20334650803607E+01

 Difference of energy with previous step (new-old):
           Absolute (Ha)=-2.69534E-07
           Relative     =-2.23987E-08

 At Broyd/MD step   6, gradients are converged : 
  max grad (force/stress) = 4.8434E-05 < tolmxf= 5.0000E-05 ha/bohr (free atoms)

================================================================================

 ----iterations are completed or convergence reached----

 Mean square residual over all n,k,spin=   2.4061E-09; max=  4.2837E-08
 reduced coordinates (array xred) for    2 atoms
      -0.000000000000     -0.000000000000      0.000000000000
       0.666666666667      0.333333333333      0.000000000000
 rms dE/dt=  4.1131E-28; max dE/dt=  0.0000E+00; dE/dt below (all hartree)
    1       0.000000000000     -0.000000000000      0.000000000000
    2      -0.000000000000     -0.000000000000      0.000000000000

 cartesian coordinates (angstrom) at end:
    1     -0.00000000000000    -0.00000000000000     0.00000000000000
    2      1.22753976211775     0.70872041209602     0.00000000000000

 cartesian forces (hartree/bohr) at end:
    1     -0.00000000000000    -0.00000000000000    -0.00000000000000
    2      0.00000000000000     0.00000000000000    -0.00000000000000
 frms,max,avg= 6.7016859E-29 1.0052529E-28   0.000E+00  0.000E+00  0.000E+00 h/b

 cartesian forces (eV/Angstrom) at end:
    1     -0.00000000000000    -0.00000000000000    -0.00000000000000
    2      0.00000000000000     0.00000000000000    -0.00000000000000
 frms,max,avg= 3.4461452E-27 5.1692178E-27   0.000E+00  0.000E+00  0.000E+00 e/A
 length scales=  4.639427935260  4.639427935260 18.601215050747 bohr
              =  2.455079524235  2.455079524235  9.843339056936 angstroms
 prteigrs : about to open file graphene_xo_DS2_EIG
 Fermi (or HOMO) energy (hartree) =  -0.11325   Average Vxc (hartree)=  -0.16652
 Eigenvalues (hartree) for nkpt=   8  k points:
 kpt#   1, nband=  5, wtk=  0.03125, kpt=  0.0000  0.0000  0.1250 (reduced coord)
  -0.74481   -0.31108   -0.13540   -0.13540    0.09153
 prteigrs : prtvol=0 or 1, do not print more k-points.


--------------------------------------------------------------------------------
 Components of total free energy (in Hartree) :

    Kinetic energy  =  8.17092497502147E+00
    Hartree energy  =  2.31850998520097E+01
    XC energy       = -4.27288744920114E+00
    Ewald energy    =  1.35900591861548E+01
    PspCore energy  =  4.27252793147237E-02
    Loc. psp. energy= -5.41146676748124E+01
    NL   psp  energy=  1.36528075115217E+00
    >>>>>>>>> Etotal= -1.20334650803607E+01

 Other information on the energy :
    Total energy(eV)= -3.27447237467600E+02 ; Band energy (Ha)=  -2.8983428161E+00
--------------------------------------------------------------------------------

 Cartesian components of stress tensor (hartree/bohr^3)
  sigma(1 1)=  7.49455182E-07  sigma(3 2)=  0.00000000E+00
  sigma(2 2)=  7.49455183E-07  sigma(3 1)=  0.00000000E+00
  sigma(3 3)= -4.58765271E-08  sigma(2 1)=  0.00000000E+00

-Cartesian components of stress tensor (GPa)         [Pressure= -1.4250E-02 GPa]
- sigma(1 1)=  2.20497290E-02  sigma(3 2)=  0.00000000E+00
- sigma(2 2)=  2.20497290E-02  sigma(3 1)=  0.00000000E+00
- sigma(3 3)= -1.34973380E-03  sigma(2 1)=  0.00000000E+00

================================================================================
== DATASET  3 ==================================================================
-   nproc =    1

 Exchange-correlation functional for the present dataset will be:
  LDA: new Teter (4/93) with spin-polarized option - ixc=1
 Citation for XC functional:
  S. Goedecker, M. Teter, J. Huetter, PRB 54, 1703 (1996)

 Real(R)+Recip(G) space primitive vectors, cartesian coordinates (Bohr,Bohr^-1):
 R(1)=  4.7132664  0.0000000  0.0000000  G(1)=  0.2121671  0.1224947  0.0000000
 R(2)= -2.3566332  4.0818084  0.0000000  G(2)=  0.0000000  0.2449894  0.0000000
 R(3)=  0.0000000  0.0000000 18.8972613  G(3)=  0.0000000  0.0000000  0.0529177
 Unit cell volume ucvol=  3.6355781E+02 bohr^3
 Angles (23,13,12)=  9.00000000E+01  9.00000000E+01  1.20000000E+02 degrees

 getcut: wavevector=  0.0000  0.0000  0.0000  ngfft=  20  20  75
         ecut(hartree)=     18.743   => boxcut(ratio)=   2.00934
--------------------------------------------------------------------------------

_setup2: Arith. and geom. avg. npw (full set) are    1409.352    1409.308

================================================================================

=== [ionmov= 3] Broyden-Fletcher-Goldfard-Shanno method (forces,Tot energy) 
================================================================================

--- Iteration: ( 1/10) Internal Cycle: (1/1)
--------------------------------------------------------------------------------

---SELF-CONSISTENT-FIELD CONVERGENCE--------------------------------------------

     iter   Etot(hartree)      deltaE(h)  residm     vres2
 ETOT  1  -12.010134744134    -1.201E+01 1.673E-01 5.188E+01
 ETOT  2  -12.028688658582    -1.855E-02 3.892E-04 4.584E+00
 ETOT  3  -12.028788011914    -9.935E-05 2.204E-05 1.540E+00
 ETOT  4  -12.028838710712    -5.070E-05 5.683E-06 1.020E-01
 ETOT  5  -12.028838968081    -2.574E-07 2.130E-06 3.019E-02
 ETOT  6  -12.028838920348     4.773E-08 1.317E-06 1.370E-02

 At SCF step    6, etot is converged : 
  for the second time, diff in etot=  4.773E-08 < toldfe=  1.000E-06

 Cartesian components of stress tensor (hartree/bohr^3)
  sigma(1 1)=  1.83368477E-04  sigma(3 2)=  0.00000000E+00
  sigma(2 2)=  1.83368477E-04  sigma(3 1)=  0.00000000E+00
  sigma(3 3)=  2.90096497E-06  sigma(2 1)=  0.00000000E+00

 Integrated electronic density in atomic spheres:
 ------------------------------------------------
 Atom  Sphere_radius  Integrated_density
    1        2.00000          4.68376929
    2        2.00000          4.69416226

---OUTPUT-----------------------------------------------------------------------

 Cartesian coordinates (xcart) [bohr]
  0.00000000000000E+00  0.00000000000000E+00  0.00000000000000E+00
  2.35663320567576E+00  1.36060281567114E+00  0.00000000000000E+00
 Reduced coordinates (xred)
  0.00000000000000E+00  0.00000000000000E+00  0.00000000000000E+00
  6.66666666666667E-01  3.33333333333333E-01  0.00000000000000E+00
 Cartesian forces (fcart) [Ha/bohr]; max,rms= 9.89505E-29 6.59670E-29 (free atoms)
  5.71290690606704E-29 -9.89504502026995E-29 -0.00000000000000E+00
 -5.71290690606704E-29  9.89504502026995E-29 -0.00000000000000E+00
 Reduced forces (fred)
 -2.69264522315439E-28  5.38529044630877E-28 -0.00000000000000E+00
  2.69264522315439E-28 -5.38529044630877E-28 -0.00000000000000E+00
 Scale of Primitive Cell (acell) [bohr]
  4.71326641135151E+00  4.71326641135151E+00  1.88972613288564E+01
 Real space primitive translations (rprimd) [bohr]
  4.71326641135151E+00  0.00000000000000E+00  0.00000000000000E+00
 -2.35663320567576E+00  4.08180844701341E+00  0.00000000000000E+00
  0.00000000000000E+00  0.00000000000000E+00  1.88972613288564E+01
 Unitary Cell Volume (ucvol) [Bohr^3]=  3.63557808964237E+02
 Angles (23,13,12)= [degrees]
  9.00000000000000E+01  9.00000000000000E+01  1.20000000000127E+02
 Lengths [Bohr]
  4.71326641135151E+00  4.71326641133339E+00  1.88972613288564E+01
 Stress tensor in cartesian coordinates (strten) [Ha/bohr^3]
  1.83368476983589E-04  0.00000000000000E+00  0.00000000000000E+00
  0.00000000000000E+00  1.83368476986618E-04  0.00000000000000E+00
  0.00000000000000E+00  0.00000000000000E+00  2.90096496761298E-06
 Total energy (etotal) [Ha]= -1.20288389203484E+01

--- Iteration: ( 2/10) Internal Cycle: (1/1)
--------------------------------------------------------------------------------

---SELF-CONSISTENT-FIELD CONVERGENCE--------------------------------------------

     iter   Etot(hartree)      deltaE(h)  residm     vres2
 ETOT  1  -12.028238265501    -1.203E+01 2.019E+01 5.658E+01
 ETOT  2  -12.029139601516    -9.013E-04 1.111E-02 2.802E+01
 ETOT  3  -12.029272522302    -1.329E-04 1.961E-02 1.118E+01
 ETOT  4  -12.029319634507    -4.711E-05 7.984E-05 7.147E-01
 ETOT  5  -12.029320976621    -1.342E-06 7.049E-05 3.780E-02
 ETOT  6  -12.029321006432    -2.981E-08 3.472E-05 1.423E-03
 ETOT  7  -12.029321012943    -6.511E-09 5.967E-05 2.278E-05

 At SCF step    7, etot is converged : 
  for the second time, diff in etot=  6.511E-09 < toldfe=  1.000E-06

 Cartesian components of stress tensor (hartree/bohr^3)
  sigma(1 1)=  1.74309241E-04  sigma(3 2)=  0.00000000E+00
  sigma(2 2)=  1.74309241E-04  sigma(3 1)=  0.00000000E+00
  sigma(3 3)=  4.39515640E-07  sigma(2 1)=  0.00000000E+00

 Integrated electronic density in atomic spheres:
 ------------------------------------------------
 Atom  Sphere_radius  Integrated_density
    1        2.00000          4.69382385
    2        2.00000          4.71036279

---OUTPUT-----------------------------------------------------------------------

 Cartesian coordinates (xcart) [bohr]
  5.69178983586860E-29 -9.85846918177906E-29  0.00000000000000E+00
  2.34792219573730E+00  1.35557351173828E+00  0.00000000000000E+00
 Reduced coordinates (xred)
 -1.24244727040896E-40 -2.42418162163146E-29  0.00000000000000E+00
  6.66666666666667E-01  3.33333333333333E-01  0.00000000000000E+00
 Cartesian forces (fcart) [Ha/bohr]; max,rms= 8.60115E-29 5.05700E-29 (free atoms)
  8.60115348384288E-29 -1.65529275975448E-29 -0.00000000000000E+00
 -8.60115348384288E-29  1.65529275975448E-29 -0.00000000000000E+00
 Reduced forces (fred)
 -4.03896783473158E-28  2.69264522315439E-28 -0.00000000000000E+00
  4.03896783473158E-28 -2.69264522315439E-28 -0.00000000000000E+00
 Scale of Primitive Cell (acell) [bohr]
  4.69584439147460E+00  4.69584439147460E+00  1.88274098853442E+01
 Real space primitive translations (rprimd) [bohr]
  4.69584439147460E+00  0.00000000000000E+00  0.00000000000000E+00
 -2.34792219573730E+00  4.06672053521484E+00  0.00000000000000E+00
  0.00000000000000E+00  0.00000000000000E+00  1.88274098853442E+01
 Unitary Cell Volume (ucvol) [Bohr^3]=  3.59541150155391E+02
 Angles (23,13,12)= [degrees]
  9.00000000000000E+01  9.00000000000000E+01  1.20000000000127E+02
 Lengths [Bohr]
  4.69584439147460E+00  4.69584439145655E+00  1.88274098853442E+01
 Stress tensor in cartesian coordinates (strten) [Ha/bohr^3]
  1.74309241260237E-04  0.00000000000000E+00  0.00000000000000E+00
  0.00000000000000E+00  1.74309241263198E-04  0.00000000000000E+00
  0.00000000000000E+00  0.00000000000000E+00  4.39515639509620E-07
 Total energy (etotal) [Ha]= -1.20293210129429E+01

 Difference of energy with previous step (new-old):
           Absolute (Ha)=-4.82093E-04
           Relative     =-4.00773E-05

--- Iteration: ( 3/10) Internal Cycle: (1/1)
--------------------------------------------------------------------------------

---SELF-CONSISTENT-FIELD CONVERGENCE--------------------------------------------

     iter   Etot(hartree)      deltaE(h)  residm     vres2
 ETOT  1  -12.015517115748    -1.202E+01 5.717E+00 9.144E+02
 ETOT  2  -12.027348235988    -1.183E-02 4.095E-03 4.697E+02
 ETOT  3  -12.029450678544    -2.102E-03 2.095E-03 1.716E+02
 ETOT  4  -12.030047900443    -5.972E-04 1.159E-04 1.065E+01
 ETOT  5  -12.030074131076    -2.623E-05 1.925E-05 6.358E-01
 ETOT  6  -12.030075009245    -8.782E-07 2.446E-06 2.602E-02
 ETOT  7  -12.030075640807    -6.316E-07 2.511E-07 2.264E-03

 At SCF step    7, etot is converged : 
  for the second time, diff in etot=  6.316E-07 < toldfe=  1.000E-06

 Cartesian components of stress tensor (hartree/bohr^3)
  sigma(1 1)= -3.86130987E-05  sigma(3 2)=  0.00000000E+00
  sigma(2 2)= -3.86130987E-05  sigma(3 1)=  0.00000000E+00
  sigma(3 3)= -1.74196251E-06  sigma(2 1)=  0.00000000E+00

 Integrated electronic density in atomic spheres:
 ------------------------------------------------
 Atom  Sphere_radius  Integrated_density
    1        2.00000          4.78697591
    2        2.00000          4.84780127

---OUTPUT-----------------------------------------------------------------------

 Cartesian coordinates (xcart) [bohr]
  4.82767824983879E-28 -3.84257035701314E-29  0.00000000000000E+00
  2.31242761937973E+00  1.33508070852357E+00  0.00000000000000E+00
 Reduced coordinates (xred)
  9.95885732430605E-29 -9.59385284719985E-30  0.00000000000000E+00
  6.66666666666667E-01  3.33333333333333E-01  0.00000000000000E+00
 Cartesian forces (fcart) [Ha/bohr]; max,rms= 8.73318E-29 5.82212E-29 (free atoms)
  8.73317677250145E-29  5.04210196051014E-29 -0.00000000000000E+00
 -8.73317677250145E-29 -5.04210196051014E-29 -0.00000000000000E+00
 Reduced forces (fred)
 -4.03896783473158E-28 -0.00000000000000E+00 -0.00000000000000E+00
  4.03896783473158E-28 -0.00000000000000E+00  0.00000000000000E+00
 Scale of Primitive Cell (acell) [bohr]
  4.62485523875947E+00  4.62485523875947E+00  1.85427876184719E+01
 Real space primitive translations (rprimd) [bohr]
  4.62485523875947E+00  0.00000000000000E+00  0.00000000000000E+00
 -2.31242761937973E+00  4.00524212557071E+00  0.00000000000000E+00
  0.00000000000000E+00  0.00000000000000E+00  1.85427876184719E+01
 Unitary Cell Volume (ucvol) [Bohr^3]=  3.43480386510372E+02
 Angles (23,13,12)= [degrees]
  9.00000000000000E+01  9.00000000000000E+01  1.20000000000127E+02
 Lengths [Bohr]
  4.62485523875947E+00  4.62485523874169E+00  1.85427876184719E+01
 Stress tensor in cartesian coordinates (strten) [Ha/bohr^3]
 -3.86130986988474E-05  0.00000000000000E+00  0.00000000000000E+00
  0.00000000000000E+00 -3.86130986979560E-05  0.00000000000000E+00
  0.00000000000000E+00  0.00000000000000E+00 -1.74196251254011E-06
 Total energy (etotal) [Ha]= -1.20300756408071E+01

 Difference of energy with previous step (new-old):
           Absolute (Ha)=-7.54628E-04
           Relative     =-6.27304E-05

--- Iteration: ( 4/10) Internal Cycle: (1/1)
--------------------------------------------------------------------------------

---SELF-CONSISTENT-FIELD CONVERGENCE--------------------------------------------

     iter   Etot(hartree)      deltaE(h)  residm     vres2
 ETOT  1  -12.029429239905    -1.203E+01 2.219E-01 3.133E+01
 ETOT  2  -12.030008249574    -5.790E-04 3.291E-04 1.469E+01
 ETOT  3  -12.030079906653    -7.166E-05 1.562E-05 6.148E+00
 ETOT  4  -12.030109141513    -2.923E-05 1.979E-05 3.931E-01
 ETOT  5  -12.030109646212    -5.047E-07 2.224E-06 1.794E-02
 ETOT  6  -12.030109683342    -3.713E-08 4.309E-06 6.612E-04

 At SCF step    6, etot is converged : 
  for the second time, diff in etot=  3.713E-08 < toldfe=  1.000E-06

 Cartesian components of stress tensor (hartree/bohr^3)
  sigma(1 1)=  1.65894873E-06  sigma(3 2)=  0.00000000E+00
  sigma(2 2)=  1.65894873E-06  sigma(3 1)=  0.00000000E+00
  sigma(3 3)= -2.48413648E-06  sigma(2 1)=  0.00000000E+00

 Integrated electronic density in atomic spheres:
 ------------------------------------------------
 Atom  Sphere_radius  Integrated_density
    1        2.00000          4.78918110
    2        2.00000          4.81679244

---OUTPUT-----------------------------------------------------------------------

 Cartesian coordinates (xcart) [bohr]
  4.95611468193590E-28 -1.03909595234512E-29  0.00000000000000E+00
  2.31855268294510E+00  1.33861701562182E+00  0.00000000000000E+00
 Reduced coordinates (xred)
  1.05585749359302E-28 -2.58748628925412E-30  0.00000000000000E+00
  6.66666666666667E-01  3.33333333333333E-01  0.00000000000000E+00
 Cartesian forces (fcart) [Ha/bohr]; max,rms= 5.02878E-29 3.35252E-29 (free atoms)
 -2.90336860033529E-29  5.02878192890664E-29 -0.00000000000000E+00
  2.90336860033529E-29 -5.02878192890664E-29 -0.00000000000000E+00
 Reduced forces (fred)
  1.34632261157719E-28 -2.69264522315439E-28 -0.00000000000000E+00
 -1.34632261157719E-28  2.69264522315439E-28 -0.00000000000000E+00
 Scale of Primitive Cell (acell) [bohr]
  4.63710536589021E+00  4.63710536589021E+00  1.85919029948368E+01
 Real space primitive translations (rprimd) [bohr]
  4.63710536589021E+00  0.00000000000000E+00  0.00000000000000E+00
 -2.31855268294510E+00  4.01585104686547E+00  0.00000000000000E+00
  0.00000000000000E+00  0.00000000000000E+00  1.85919029948368E+01
 Unitary Cell Volume (ucvol) [Bohr^3]=  3.46217012729140E+02
 Angles (23,13,12)= [degrees]
  9.00000000000000E+01  9.00000000000000E+01  1.20000000000127E+02
 Lengths [Bohr]
  4.63710536589021E+00  4.63710536587238E+00  1.85919029948368E+01
 Stress tensor in cartesian coordinates (strten) [Ha/bohr^3]
  1.65894873312844E-06  0.00000000000000E+00  0.00000000000000E+00
  0.00000000000000E+00  1.65894873441230E-06  0.00000000000000E+00
  0.00000000000000E+00  0.00000000000000E+00 -2.48413647703136E-06
 Total energy (etotal) [Ha]= -1.20301096833425E+01

 Difference of energy with previous step (new-old):
           Absolute (Ha)=-3.40425E-05
           Relative     =-2.82978E-06

 At Broyd/MD step   4, gradients are converged : 
  max grad (force/stress) = 2.7792E-05 < tolmxf= 5.0000E-05 ha/bohr (free atoms)

================================================================================

 ----iterations are completed or convergence reached----

 Mean square residual over all n,k,spin=   5.1754E-08; max=  4.3094E-06
 reduced coordinates (array xred) for    2 atoms
       0.000000000000     -0.000000000000      0.000000000000
       0.666666666667      0.333333333333      0.000000000000
 rms dE/dt=  1.9040E-28; max dE/dt=  2.6926E-28; dE/dt below (all hartree)
    1       0.000000000000     -0.000000000000      0.000000000000
    2       0.000000000000      0.000000000000      0.000000000000

 cartesian coordinates (angstrom) at end:
    1      0.00000000000000    -0.00000000000000     0.00000000000000
    2      1.22692523672975     0.70836561569783     0.00000000000000

 cartesian forces (hartree/bohr) at end:
    1     -0.00000000000000     0.00000000000000    -0.00000000000000
    2      0.00000000000000    -0.00000000000000    -0.00000000000000
 frms,max,avg= 3.3525213E-29 5.0287819E-29   0.000E+00  0.000E+00  0.000E+00 h/b

 cartesian forces (eV/Angstrom) at end:
    1     -0.00000000000000     0.00000000000000    -0.00000000000000
    2      0.00000000000000    -0.00000000000000    -0.00000000000000
 frms,max,avg= 1.7239356E-27 2.5859034E-27   0.000E+00  0.000E+00  0.000E+00 e/A
 length scales=  4.637105365890  4.637105365890 18.591902994837 bohr
              =  2.453850473459  2.453850473459  9.838411329184 angstroms
 prteigrs : about to open file graphene_xo_DS3_EIG
 Fermi (or HOMO) energy (hartree) =  -0.02495   Average Vxc (hartree)=  -0.16665
 Eigenvalues (hartree) for nkpt=  21  k points:
 kpt#   1, nband=  5, wtk=  0.00926, kpt=  0.0000  0.0000  0.0833 (reduced coord)
  -0.74497   -0.31114   -0.13518   -0.13518    0.09111
 prteigrs : prtvol=0 or 1, do not print more k-points.


--------------------------------------------------------------------------------
 Components of total free energy (in Hartree) :

    Kinetic energy  =  8.16954936528117E+00
    Hartree energy  =  2.31907692928683E+01
    XC energy       = -4.27340326348434E+00
    Ewald energy    =  1.35968659875345E+01
    PspCore energy  =  4.27895104207883E-02
    Loc. psp. energy= -5.41285089412768E+01
    NL   psp  energy=  1.37182836531394E+00
    >>>>>>>>> Etotal= -1.20301096833425E+01

 Other information on the energy :
    Total energy(eV)= -3.27355932471335E+02 ; Band energy (Ha)=  -2.8945842233E+00
--------------------------------------------------------------------------------

 Cartesian components of stress tensor (hartree/bohr^3)
  sigma(1 1)=  1.65894873E-06  sigma(3 2)=  0.00000000E+00
  sigma(2 2)=  1.65894873E-06  sigma(3 1)=  0.00000000E+00
  sigma(3 3)= -2.48413648E-06  sigma(2 1)=  0.00000000E+00

-Cartesian components of stress tensor (GPa)         [Pressure= -8.1767E-03 GPa]
- sigma(1 1)=  4.88079486E-02  sigma(3 2)=  0.00000000E+00
- sigma(2 2)=  4.88079486E-02  sigma(3 1)=  0.00000000E+00
- sigma(3 3)= -7.30858061E-02  sigma(2 1)=  0.00000000E+00

== END DATASET(S) ==============================================================
================================================================================
  
 -outvars: echo values of variables after computation  --------
            acell1     4.7515911422E+00  4.7515911422E+00  1.9050919618E+01 Bohr
            acell2     4.6394279353E+00  4.6394279353E+00  1.8601215051E+01 Bohr
            acell3     4.6371053659E+00  4.6371053659E+00  1.8591902995E+01 Bohr
              amu      1.20110000E+01
           diemac      1.20000000E+01
          dilatmx      1.05000000E+00
             ecut      1.70000000E+01 Hartree
           ecutsm      5.00000000E-01 Hartree
           etotal1    -1.1954125300E+01
           etotal2    -1.2033465080E+01
           etotal3    -1.2030109683E+01
            fcart1    -8.5002427899E-29 -2.4538087315E-28 -0.0000000000E+00
                       8.5002427899E-29  2.4538087315E-28 -0.0000000000E+00
            fcart2    -5.8038302582E-29 -1.0052528886E-28 -0.0000000000E+00
                       5.8038302582E-29  1.0052528886E-28 -0.0000000000E+00
            fcart3    -2.9033686003E-29  5.0287819289E-29 -0.0000000000E+00
                       2.9033686003E-29 -5.0287819289E-29 -0.0000000000E+00
-          fftalg         112
           ionmov           3
           jdtset        1    2    3
              kpt1     0.00000000E+00  0.00000000E+00  2.50000000E-01
                       5.00000000E-01  0.00000000E+00  2.50000000E-01
              kpt2     0.00000000E+00  0.00000000E+00  1.25000000E-01
                       2.50000000E-01  0.00000000E+00  1.25000000E-01
                       5.00000000E-01  0.00000000E+00  1.25000000E-01
                       2.50000000E-01  2.50000000E-01  1.25000000E-01
                       0.00000000E+00  0.00000000E+00  3.75000000E-01
                       2.50000000E-01  0.00000000E+00  3.75000000E-01
                       5.00000000E-01  0.00000000E+00  3.75000000E-01
                       2.50000000E-01  2.50000000E-01  3.75000000E-01
              kpt3     0.00000000E+00  0.00000000E+00  8.33333333E-02
                       1.66666667E-01  0.00000000E+00  8.33333333E-02
                       3.33333333E-01  0.00000000E+00  8.33333333E-02
                       5.00000000E-01  0.00000000E+00  8.33333333E-02
                       1.66666667E-01  1.66666667E-01  8.33333333E-02
                       3.33333333E-01  1.66666667E-01  8.33333333E-02
                       3.33333333E-01  3.33333333E-01  8.33333333E-02
                       0.00000000E+00  0.00000000E+00  2.50000000E-01
                       1.66666667E-01  0.00000000E+00  2.50000000E-01
                       3.33333333E-01  0.00000000E+00  2.50000000E-01
                       5.00000000E-01  0.00000000E+00  2.50000000E-01
                       1.66666667E-01  1.66666667E-01  2.50000000E-01
                       3.33333333E-01  1.66666667E-01  2.50000000E-01
                       3.33333333E-01  3.33333333E-01  2.50000000E-01
                       0.00000000E+00  0.00000000E+00  4.16666667E-01
                       1.66666667E-01  0.00000000E+00  4.16666667E-01
                       3.33333333E-01  0.00000000E+00  4.16666667E-01
                       5.00000000E-01  0.00000000E+00  4.16666667E-01
                       1.66666667E-01  1.66666667E-01  4.16666667E-01
                       3.33333333E-01  1.66666667E-01  4.16666667E-01
                       3.33333333E-01  3.33333333E-01  4.16666667E-01
         kptrlatt1       2    0    0      0    2    0      0    0    2
         kptrlatt2       4    0    0      0    4    0      0    0    4
         kptrlatt3       6    0    0      0    6    0      0    0    6
          kptrlen1     9.42653282E+00
          kptrlen2     1.88530656E+01
          kptrlen3     2.82795985E+01
P           mkmem1          2
P           mkmem2          8
P           mkmem3         21
            natom           2
            nband1          5
            nband2          5
            nband3          5
           ndtset           3
            ngfft          20      20      75
             nkpt1          2
             nkpt2          8
             nkpt3         21
            nstep          10
             nsym          24
            ntime          10
           ntypat           1
              occ1     2.000000  2.000000  2.000000  2.000000  0.000000
              occ2     2.000000  2.000000  2.000000  2.000000  0.000000
              occ3     2.000000  2.000000  2.000000  2.000000  0.000000
          optcell           1
            rprim      1.0000000000E+00  0.0000000000E+00  0.0000000000E+00
                      -5.0000000000E-01  8.6602540378E-01  0.0000000000E+00
                       0.0000000000E+00  0.0000000000E+00  1.0000000000E+00
           shiftk      0.00000000E+00  0.00000000E+00  5.00000000E-01
          spgroup         191
           strten1    -9.4732565792E-05 -9.4732565792E-05  1.8815415849E-04
                       0.0000000000E+00  0.0000000000E+00  0.0000000000E+00
           strten2     7.4945518157E-07  7.4945518284E-07 -4.5876527109E-08
                       0.0000000000E+00  0.0000000000E+00  0.0000000000E+00
           strten3     1.6589487331E-06  1.6589487344E-06 -2.4841364770E-06
                       0.0000000000E+00  0.0000000000E+00  0.0000000000E+00
           symrel      1  0  0   0  1  0   0  0  1      -1  0  0   0 -1  0   0  0 -1
                       0  1  0   1  0  0   0  0  1       0 -1  0  -1  0  0   0  0 -1
                       1  1  0  -1  0  0   0  0  1      -1 -1  0   1  0  0   0  0 -1
                      -1  0  0   1  1  0   0  0  1       1  0  0  -1 -1  0   0  0 -1
                       0  1  0  -1 -1  0   0  0  1       0 -1  0   1  1  0   0  0 -1
                      -1 -1  0   0  1  0   0  0  1       1  1  0   0 -1  0   0  0 -1
                      -1  0  0   0 -1  0   0  0  1       1  0  0   0  1  0   0  0 -1
                       0 -1  0  -1  0  0   0  0  1       0  1  0   1  0  0   0  0 -1
                      -1 -1  0   1  0  0   0  0  1       1  1  0  -1  0  0   0  0 -1
                       1  0  0  -1 -1  0   0  0  1      -1  0  0   1  1  0   0  0 -1
                       0 -1  0   1  1  0   0  0  1       0  1  0  -1 -1  0   0  0 -1
                       1  1  0   0 -1  0   0  0  1      -1 -1  0   0  1  0   0  0 -1
            tnons      0.0000000  0.0000000  0.0000000    -0.3333333  0.3333333  0.0000000
                      -0.3333333  0.3333333  0.0000000     0.0000000  0.0000000  0.0000000
                      -0.3333333  0.3333333  0.0000000     0.0000000  0.0000000  0.0000000
                       0.0000000  0.0000000  0.0000000    -0.3333333  0.3333333  0.0000000
                       0.0000000  0.0000000  0.0000000    -0.3333333  0.3333333  0.0000000
                      -0.3333333  0.3333333  0.0000000     0.0000000  0.0000000  0.0000000
                      -0.3333333  0.3333333  0.0000000     0.0000000  0.0000000  0.0000000
                       0.0000000  0.0000000  0.0000000    -0.3333333  0.3333333  0.0000000
                       0.0000000  0.0000000  0.0000000    -0.3333333  0.3333333  0.0000000
                      -0.3333333  0.3333333  0.0000000     0.0000000  0.0000000  0.0000000
                      -0.3333333  0.3333333  0.0000000     0.0000000  0.0000000  0.0000000
                       0.0000000  0.0000000  0.0000000    -0.3333333  0.3333333  0.0000000
           toldfe      1.00000000E-06 Hartree
            typat      1  1
              wtk1       0.25000    0.75000
              wtk2       0.03125    0.18750    0.09375    0.18750    0.03125    0.18750
                         0.09375    0.18750
              wtk3       0.00926    0.05556    0.05556    0.02778    0.05556    0.11111
                         0.01852    0.00926    0.05556    0.05556    0.02778    0.05556
                         0.11111    0.01852    0.00926    0.05556    0.05556    0.02778
                         0.05556    0.11111    0.01852
           xangst1     4.2909917890E-29 -1.8802495846E-28 -1.7785270033E-30
                       1.2572168685E+00  7.2585449745E-01  1.7785270033E-30
           xangst2    -1.5729260514E-28 -2.1782122054E-28  0.0000000000E+00
                       1.2275397621E+00  7.0872041210E-01  0.0000000000E+00
           xangst3     2.6226629328E-28 -5.4986589552E-30  0.0000000000E+00
                       1.2269252367E+00  7.0836561570E-01  0.0000000000E+00
            xcart1     8.1087993197E-29 -3.5531567763E-28 -3.3609289562E-30
                       2.3757955711E+00  1.3716662125E+00  3.3609289562E-30
            xcart2    -2.9723994644E-28 -4.1162245275E-28  0.0000000000E+00
                       2.3197139676E+00  1.3392874836E+00  0.0000000000E+00
            xcart3     4.9561146819E-28 -1.0390959523E-29  0.0000000000E+00
                       2.3185526829E+00  1.3386170156E+00  0.0000000000E+00
             xred     -2.6107803727E-29 -8.6346487310E-29 -1.7641820046E-31
                       6.6666666667E-01  3.3333333333E-01  1.7641820046E-31
            znucl        6.00000

================================================================================

- Total cpu        time (s,m,h):        105.6        1.76      0.029
- Total wall clock time (s,m,h):         27.8        0.46      0.008
-
- For major independent code sections, cpu and wall times (sec),
-  as well as % of the time and number of calls for node 0-
-<BEGIN_TIMER mpi_nprocs = 1, omp_nthreads = 1, mpi_rank = 0>
- cpu_time =          105.6, wall_time =           27.8
-
- routine                        cpu     %       wall     %      number of calls  Gflops    Speedup Efficacity
-                                                                  (-1=no count)
- fourwf%(pot)                  67.912  64.3     17.551  63.2          28625      -1.00        3.87       3.87
- projbd                        10.220   9.7      2.581   9.3          45290      -1.00        3.96       3.96
- fourwf%(den)                   5.064   4.8      1.295   4.7           3632      -1.00        3.91       3.91
- nonlop(apply)                  3.728   3.5      0.938   3.4          28625      -1.00        3.97       3.97
- vtowfk(ssdiag)                 3.072   2.9      0.925   3.3             -1      -1.00        3.32       3.32
- getghc-other                   1.712   1.6      0.515   1.9             -1      -1.00        3.32       3.32
- stress                         1.460   1.4      0.374   1.3             16      -1.00        3.90       3.90
- ewald2 (+vdw_dftd)             1.284   1.2      0.329   1.2             16      -1.00        3.90       3.90
- ewald                          1.160   1.1      0.318   1.1             16      -1.00        3.65       3.65
- xc:pot/=fourdp                 0.916   0.9      0.238   0.9            112      -1.00        3.85       3.85
- fourdp                         0.808   0.8      0.213   0.8            496      -1.00        3.79       3.79
- others (102)                   1.980   1.9      0.835   3.0             -1      -1.00        2.37       2.37
-<END_TIMER>
-
- subtotal                      99.316  94.1     26.112  94.0                                  3.80       3.80

- For major independent code sections, cpu and wall times (sec),
- as well as % of the total time and number of calls 

-<BEGIN_TIMER mpi_nprocs = 1, omp_nthreads = 1, mpi_rank = world>
- cpu_time =         105.6, wall_time =          27.8
-
- routine                         cpu     %       wall     %      number of calls Gflops    Speedup Efficacity
-                                                                  (-1=no count)
- fourwf%(pot)                  67.912  64.3     17.551  63.2          28625      -1.00        3.87       3.87
- projbd                        10.220   9.7      2.581   9.3          45290      -1.00        3.96       3.96
- fourwf%(den)                   5.064   4.8      1.295   4.7           3632      -1.00        3.91       3.91
- nonlop(apply)                  3.728   3.5      0.938   3.4          28625      -1.00        3.97       3.97
- vtowfk(ssdiag)                 3.072   2.9      0.925   3.3             -1      -1.00        3.32       3.32
- getghc-other                   1.712   1.6      0.515   1.9             -1      -1.00        3.32       3.32
- stress                         1.460   1.4      0.374   1.3             16      -1.00        3.90       3.90
- ewald2 (+vdw_dftd)             1.284   1.2      0.329   1.2             16      -1.00        3.90       3.90
- ewald                          1.160   1.1      0.318   1.1             16      -1.00        3.65       3.65
- xc:pot/=fourdp                 0.916   0.9      0.238   0.9            112      -1.00        3.85       3.85
- fourdp                         0.808   0.8      0.213   0.8            496      -1.00        3.79       3.79
- others (102)                   1.980   1.9      0.835   3.0             -1      -1.00        2.37       2.37
-<END_TIMER>

- subtotal                      99.316  94.1     26.112  94.0                                  3.80       3.80

================================================================================

 Suggested references for the acknowledgment of ABINIT usage.

 The users of ABINIT have little formal obligations with respect to the ABINIT group
 (those specified in the GNU General Public License, http://www.gnu.org/copyleft/gpl.txt).
 However, it is common practice in the scientific literature,
 to acknowledge the efforts of people that have made the research possible.
 In this spirit, please find below suggested citations of work written by ABINIT developers,
 corresponding to implementations inside of ABINIT that you have used in the present run.
 Note also that it will be of great value to readers of publications presenting these results,
 to read papers enabling them to understand the theoretical formalism and details
 of the ABINIT implementation.
 For information on why they are suggested, see also http://www.abinit.org/about/?text=acknowledgments.
-
- [1] Recent developments in the ABINIT software package.
- Computer Phys. Comm. 205, 106 (2016).
- X.Gonze, F.Jollet, F.Abreu Araujo, D.Adams, B.Amadon, T.Applencourt,
- C.Audouze, J.-M.Beuken, J.Bieder, A.Bokhanchuk, E.Bousquet, F.Bruneval
- D.Caliste, M.Cote, F.Dahm, F.Da Pieve, M.Delaveau, M.Di Gennaro,
- B.Dorado, C.Espejo, G.Geneste, L.Genovese, A.Gerossier, M.Giantomassi,
- Y.Gillet, D.R.Hamann, L.He, G.Jomard, J.Laflamme Janssen, S.Le Roux,
- A.Levitt, A.Lherbier, F.Liu, I.Lukacevic, A.Martin, C.Martins,
- M.J.T.Oliveira, S.Ponce, Y.Pouillon, T.Rangel, G.-M.Rignanese,
- A.H.Romero, B.Rousseau, O.Rubel, A.A.Shukri, M.Stankovski, M.Torrent,
- M.J.Van Setten, B.Van Troeye, M.J.Verstraete, D.Waroquier, J.Wiktor,
- B.Xue, A.Zhou, J.W.Zwanziger.
- Comment : the fourth generic paper describing the ABINIT project.
- Note that a version of this paper, that is not formatted for Computer Phys. Comm. 
- is available at http://www.abinit.org/about/ABINIT16.pdf .
- The licence allows the authors to put it on the Web.
-
- [2] ABINIT : First-principles approach of materials and nanosystem properties.
- Computer Phys. Comm. 180, 2582-2615 (2009).
- X. Gonze, B. Amadon, P.-M. Anglade, J.-M. Beuken, F. Bottin, P. Boulanger, F. Bruneval,
- D. Caliste, R. Caracas, M. Cote, T. Deutsch, L. Genovese, Ph. Ghosez, M. Giantomassi
- S. Goedecker, D.R. Hamann, P. Hermet, F. Jollet, G. Jomard, S. Leroux, M. Mancini, S. Mazevet,
- M.J.T. Oliveira, G. Onida, Y. Pouillon, T. Rangel, G.-M. Rignanese, D. Sangalli, R. Shaltaf,
- M. Torrent, M.J. Verstraete, G. Zerah, J.W. Zwanziger
- Comment : the third generic paper describing the ABINIT project.
- Note that a version of this paper, that is not formatted for Computer Phys. Comm. 
- is available at http://www.abinit.org/about/ABINIT_CPC_v10.pdf .
- The licence allows the authors to put it on the Web.
-
- [3] A brief introduction to the ABINIT software package.
- Z. Kristallogr. 220, 558-562 (2005).
- X. Gonze, G.-M. Rignanese, M. Verstraete, J.-M. Beuken, Y. Pouillon, R. Caracas, F. Jollet,
- M. Torrent, G. Zerah, M. Mikami, Ph. Ghosez, M. Veithen, J.-Y. Raty, V. Olevano, F. Bruneval,
- L. Reining, R. Godby, G. Onida, D.R. Hamann, and D.C. Allan.
- Comment : the second generic paper describing the ABINIT project. Note that this paper
- should be cited especially if you are using the GW part of ABINIT, as several authors
- of this part are not in the list of authors of the first or third paper.
- The .pdf of the latter paper is available at http://www.abinit.org/about/zfk_0505-06_558-562.pdf.
- Note that it should not redistributed (Copyright by Oldenburg Wissenshaftverlag,
- the licence allows the authors to put it on the Web).
-
- And optionally:
-
- [4] First-principles computation of material properties : the ABINIT software project. 
- X. Gonze, J.-M. Beuken, R. Caracas, F. Detraux, M. Fuchs, G.-M. Rignanese, L. Sindic,
- M. Verstraete, G. Zerah, F. Jollet, M. Torrent, A. Roy, M. Mikami, Ph. Ghosez, J.-Y. Raty, D.C. Allan.
- Computational Materials Science 25, 478-492 (2002). http://dx.doi.org/10.1016/S0927-0256(02)00325-7
- Comment : the original paper describing the ABINIT project.
-
- Proc.   0 individual time (sec): cpu=        105.6  wall=         27.8

================================================================================

 Calculation completed.
.Delivered  34 WARNINGs and   4 COMMENTs to log file.
+Overall time at end (sec) : cpu=        105.6  wall=         27.8
