
.Version 8.4.1 of ABINIT 
.(sequential version, prepared for a x86_64_linux_gnu7.0 computer) 

.Copyright (C) 1998-2017 ABINIT group . 
 ABINIT comes with ABSOLUTELY NO WARRANTY.
 It is free software, and you are welcome to redistribute it
 under certain conditions (GNU General Public License,
 see ~abinit/COPYING or http://www.gnu.org/copyleft/gpl.txt).

 ABINIT is a project of the Universite Catholique de Louvain,
 Corning Inc. and other collaborators, see ~abinit/doc/developers/contributors.txt .
 Please read ~abinit/doc/users/acknowledgments.html for suggested
 acknowledgments of the ABINIT effort.
 For more information, see http://www.abinit.org .

.Starting date : Mon  7 Aug 2017.
- ( at 11h46 )
  
- input  file    -> graphene.in
- output file    -> graphene.out
- root for input  files -> graphene_xi
- root for output files -> graphene_xo


 DATASET    1 : space group P6/m m m (#191); Bravais hP (primitive hexag.)
================================================================================
 Values of the parameters that define the memory need for DATASET  1.
     intxc =       0    ionmov =       0      iscf =       7    lmnmax =       1
     lnmax =       1     mgfft =      72  mpssoang =       2    mqgrid =    3453
     natom =       2  nloc_mem =       1    nspden =       1   nspinor =       1
    nsppol =       1      nsym =      24    n1xccc =    2501    ntypat =       1
    occopt =       1   xclevel =       1
-    mband =           5        mffmem =           1         mkmem =           8
       mpw =        1205          nfft =       23328          nkpt =           8
================================================================================
P This job should need less than                       8.073 Mbytes of memory.
  Rough estimation (10% accuracy) of disk space for files :
_ WF disk file :      0.737 Mbytes ; DEN or POT disk file :      0.180 Mbytes.
================================================================================


 DATASET    2 : space group P6/m m m (#191); Bravais hP (primitive hexag.)
================================================================================
 Values of the parameters that define the memory need for DATASET  2.
     intxc =       0    ionmov =       0      iscf =      -2    lmnmax =       1
     lnmax =       1     mgfft =      72  mpssoang =       2    mqgrid =    3453
     natom =       2  nloc_mem =       1    nspden =       1   nspinor =       1
    nsppol =       1      nsym =      24    n1xccc =    2501    ntypat =       1
    occopt =       1   xclevel =       1
-    mband =           8        mffmem =           1         mkmem =          48
       mpw =        1201          nfft =       23328          nkpt =          48
================================================================================
P This job should need less than                      12.129 Mbytes of memory.
  Rough estimation (10% accuracy) of disk space for files :
_ WF disk file :      7.039 Mbytes ; DEN or POT disk file :      0.180 Mbytes.
================================================================================

--------------------------------------------------------------------------------
------------- Echo of variables that govern the present computation ------------
--------------------------------------------------------------------------------
-
- outvars: echo of selected default values                                      
-   iomode0 =  0 , fftalg0 =112 , wfoptalg0 =  0
-
- outvars: echo of global parameters not present in the input file              
-  max_nthreads =    0
-
 -outvars: echo values of preprocessed input variables --------
            acell      4.6394279353E+00  4.6394279353E+00  1.8601215051E+01 Bohr
              amu      1.20110000E+01
           diemac      1.20000000E+01
             ecut      1.70000000E+01 Hartree
           enunit1          0
           enunit2          1
-          fftalg         112
           getden1          0
           getden2         -1
             iscf1          7
             iscf2         -2
           istwfk2       2    0    0    0    0    0    0    0    0    0
                         0    0    0    0    0    0    0    3    0    0
                         0    0    0    0    0    0    0    0    0    0
                         0    0    0    0    0    0    0    0    0    0
                         0    0    0    0    0    0    0    2
           jdtset        1    2
              kpt1     0.00000000E+00  0.00000000E+00  1.25000000E-01
                       2.50000000E-01  0.00000000E+00  1.25000000E-01
                       5.00000000E-01  0.00000000E+00  1.25000000E-01
                       2.50000000E-01  2.50000000E-01  1.25000000E-01
                       0.00000000E+00  0.00000000E+00  3.75000000E-01
                       2.50000000E-01  0.00000000E+00  3.75000000E-01
                       5.00000000E-01  0.00000000E+00  3.75000000E-01
                       2.50000000E-01  2.50000000E-01  3.75000000E-01
              kpt2     0.00000000E+00  0.00000000E+00  0.00000000E+00
                       2.94117647E-02  0.00000000E+00  0.00000000E+00
                       5.88235294E-02  0.00000000E+00  0.00000000E+00
                       8.82352941E-02  0.00000000E+00  0.00000000E+00
                       1.17647059E-01  0.00000000E+00  0.00000000E+00
                       1.47058824E-01  0.00000000E+00  0.00000000E+00
                       1.76470588E-01  0.00000000E+00  0.00000000E+00
                       2.05882353E-01  0.00000000E+00  0.00000000E+00
                       2.35294118E-01  0.00000000E+00  0.00000000E+00
                       2.64705882E-01  0.00000000E+00  0.00000000E+00
                       2.94117647E-01  0.00000000E+00  0.00000000E+00
                       3.23529412E-01  0.00000000E+00  0.00000000E+00
                       3.52941176E-01  0.00000000E+00  0.00000000E+00
                       3.82352941E-01  0.00000000E+00  0.00000000E+00
                       4.11764706E-01  0.00000000E+00  0.00000000E+00
                       4.41176471E-01  0.00000000E+00  0.00000000E+00
                       4.70588235E-01  0.00000000E+00  0.00000000E+00
                       5.00000000E-01  0.00000000E+00  0.00000000E+00
                       4.83333333E-01  3.33333333E-02  0.00000000E+00
                       4.66666667E-01  6.66666667E-02  0.00000000E+00
                       4.50000000E-01  1.00000000E-01  0.00000000E+00
                       4.33333333E-01  1.33333333E-01  0.00000000E+00
                       4.16666667E-01  1.66666667E-01  0.00000000E+00
                       4.00000000E-01  2.00000000E-01  0.00000000E+00
                       3.83333333E-01  2.33333333E-01  0.00000000E+00
                       3.66666667E-01  2.66666667E-01  0.00000000E+00
                       3.50000000E-01  3.00000000E-01  0.00000000E+00
                       3.33333333E-01  3.33333333E-01  0.00000000E+00
                       3.16666667E-01  3.16666667E-01  0.00000000E+00
                       3.00000000E-01  3.00000000E-01  0.00000000E+00
                       2.83333333E-01  2.83333333E-01  0.00000000E+00
                       2.66666667E-01  2.66666667E-01  0.00000000E+00
                       2.50000000E-01  2.50000000E-01  0.00000000E+00
                       2.33333333E-01  2.33333333E-01  0.00000000E+00
                       2.16666667E-01  2.16666667E-01  0.00000000E+00
                       2.00000000E-01  2.00000000E-01  0.00000000E+00
                       1.83333333E-01  1.83333333E-01  0.00000000E+00
                       1.66666667E-01  1.66666667E-01  0.00000000E+00
                       1.50000000E-01  1.50000000E-01  0.00000000E+00
                       1.33333333E-01  1.33333333E-01  0.00000000E+00
                       1.16666667E-01  1.16666667E-01  0.00000000E+00
                       1.00000000E-01  1.00000000E-01  0.00000000E+00
                       8.33333333E-02  8.33333333E-02  0.00000000E+00
                       6.66666667E-02  6.66666667E-02  0.00000000E+00
                       5.00000000E-02  5.00000000E-02  0.00000000E+00
                       3.33333333E-02  3.33333333E-02  0.00000000E+00
                       1.66666667E-02  1.66666667E-02  0.00000000E+00
                       0.00000000E+00  0.00000000E+00  0.00000000E+00
           kptopt1          1
           kptopt2         -3
         kptrlatt        4    0    0      0    4    0      0    0    4
          kptrlen1     1.85577117E+01
          kptrlen2     3.00000000E+01
P           mkmem1          8
P           mkmem2         48
            natom           2
            nband1          5
            nband2          8
           nbdbuf1          0
           nbdbuf2          2
           ndtset           2
            ngfft          18      18      72
             nkpt1          8
             nkpt2         48
            nstep          10
             nsym          24
           ntypat           1
              occ      2.000000  2.000000  2.000000  2.000000  0.000000
            rprim      1.0000000000E+00  0.0000000000E+00  0.0000000000E+00
                      -5.0000000000E-01  8.6602540378E-01  0.0000000000E+00
                       0.0000000000E+00  0.0000000000E+00  1.0000000000E+00
           shiftk1     0.00000000E+00  0.00000000E+00  5.00000000E-01
           shiftk2     5.00000000E-01  5.00000000E-01  5.00000000E-01
          spgroup         191
           symrel      1  0  0   0  1  0   0  0  1      -1  0  0   0 -1  0   0  0 -1
                       0  1  0   1  0  0   0  0  1       0 -1  0  -1  0  0   0  0 -1
                       1  1  0  -1  0  0   0  0  1      -1 -1  0   1  0  0   0  0 -1
                      -1  0  0   1  1  0   0  0  1       1  0  0  -1 -1  0   0  0 -1
                       0  1  0  -1 -1  0   0  0  1       0 -1  0   1  1  0   0  0 -1
                      -1 -1  0   0  1  0   0  0  1       1  1  0   0 -1  0   0  0 -1
                      -1  0  0   0 -1  0   0  0  1       1  0  0   0  1  0   0  0 -1
                       0 -1  0  -1  0  0   0  0  1       0  1  0   1  0  0   0  0 -1
                      -1 -1  0   1  0  0   0  0  1       1  1  0  -1  0  0   0  0 -1
                       1  0  0  -1 -1  0   0  0  1      -1  0  0   1  1  0   0  0 -1
                       0 -1  0   1  1  0   0  0  1       0  1  0  -1 -1  0   0  0 -1
                       1  1  0   0 -1  0   0  0  1      -1 -1  0   0  1  0   0  0 -1
            tnons      0.0000000  0.0000000  0.0000000    -0.3333333  0.3333333  0.0000000
                      -0.3333333  0.3333333  0.0000000     0.0000000  0.0000000  0.0000000
                      -0.3333333  0.3333333  0.0000000     0.0000000  0.0000000  0.0000000
                       0.0000000  0.0000000  0.0000000    -0.3333333  0.3333333  0.0000000
                       0.0000000  0.0000000  0.0000000    -0.3333333  0.3333333  0.0000000
                      -0.3333333  0.3333333  0.0000000     0.0000000  0.0000000  0.0000000
                      -0.3333333  0.3333333  0.0000000     0.0000000  0.0000000  0.0000000
                       0.0000000  0.0000000  0.0000000    -0.3333333  0.3333333  0.0000000
                       0.0000000  0.0000000  0.0000000    -0.3333333  0.3333333  0.0000000
                      -0.3333333  0.3333333  0.0000000     0.0000000  0.0000000  0.0000000
                      -0.3333333  0.3333333  0.0000000     0.0000000  0.0000000  0.0000000
                       0.0000000  0.0000000  0.0000000    -0.3333333  0.3333333  0.0000000
           toldfe1     1.00000000E-06 Hartree
           toldfe2     0.00000000E+00 Hartree
           tolwfr1     0.00000000E+00
           tolwfr2     1.00000000E-12
            typat      1  1
              wtk1       0.03125    0.18750    0.09375    0.18750    0.03125    0.18750
                         0.09375    0.18750
              wtk2       1.00000    1.00000    1.00000    1.00000    1.00000    1.00000
                         1.00000    1.00000    1.00000    1.00000    1.00000    1.00000
                         1.00000    1.00000    1.00000    1.00000    1.00000    1.00000
                         1.00000    1.00000    1.00000    1.00000    1.00000    1.00000
                         1.00000    1.00000    1.00000    1.00000    1.00000    1.00000
                         1.00000    1.00000    1.00000    1.00000    1.00000    1.00000
                         1.00000    1.00000    1.00000    1.00000    1.00000    1.00000
                         1.00000    1.00000    1.00000    1.00000    1.00000    1.00000
           xangst      0.0000000000E+00  0.0000000000E+00  0.0000000000E+00
                       1.2275397621E+00  7.0872041210E-01  0.0000000000E+00
            xcart      0.0000000000E+00  0.0000000000E+00  0.0000000000E+00
                       2.3197139676E+00  1.3392874837E+00  0.0000000000E+00
             xred      0.0000000000E+00  0.0000000000E+00  0.0000000000E+00
                       6.6666666667E-01  3.3333333333E-01  0.0000000000E+00
            znucl        6.00000

================================================================================

 chkinp: Checking input parameters for consistency, jdtset=   1.

 chkinp: Checking input parameters for consistency, jdtset=   2.

================================================================================
== DATASET  1 ==================================================================
-   nproc =    1

 Exchange-correlation functional for the present dataset will be:
  LDA: new Teter (4/93) with spin-polarized option - ixc=1
 Citation for XC functional:
  S. Goedecker, M. Teter, J. Huetter, PRB 54, 1703 (1996)

 Real(R)+Recip(G) space primitive vectors, cartesian coordinates (Bohr,Bohr^-1):
 R(1)=  4.6394279  0.0000000  0.0000000  G(1)=  0.2155438  0.1244443  0.0000000
 R(2)= -2.3197140  4.0178625  0.0000000  G(2)=  0.0000000  0.2488886  0.0000000
 R(3)=  0.0000000  0.0000000 18.6012151  G(3)=  0.0000000  0.0000000  0.0537599
 Unit cell volume ucvol=  3.4673750E+02 bohr^3
 Angles (23,13,12)=  9.00000000E+01  9.00000000E+01  1.20000000E+02 degrees

 getcut: wavevector=  0.0000  0.0000  0.0000  ngfft=  18  18  72
         ecut(hartree)=     17.000   => boxcut(ratio)=   2.08546

--- Pseudopotential description ------------------------------------------------
- pspini: atom type   1  psp file is ./6c.pspnc
- pspatm: opening atomic psp file    ./6c.pspnc
-  Troullier-Martins psp for element  C         Thu Oct 27 17:29:33 EDT 1994
-  6.00000   4.00000    940714                znucl, zion, pspdat
    1    1    1    1      2001   0.00000      pspcod,pspxc,lmax,lloc,mmax,r2well
    0  10.372  24.987    1   1.4850707        l,e99.0,e99.9,nproj,rcpsp
   0.00000000   0.00000000   0.00000000   0.00000000     rms, ekb1, ekb2, epsatm
    1  15.431  21.987    0   1.4850707        l,e99.0,e99.9,nproj,rcpsp
   0.00000000   0.00000000   0.00000000   0.00000000     rms, ekb1, ekb2, epsatm
    0.83985002509544    0.99012430797080    0.51184907750884   rchrg,fchrg,qchrg
 pspatm: epsatm=    0.92590353
         --- l  ekb(1:nproj) -->
             0    4.921466
 pspatm: atomic psp has been read  and splines computed

   1.48144565E+01                                ecore*ucvol(ha*bohr**3)
--------------------------------------------------------------------------------

_setup2: Arith. and geom. avg. npw (full set) are    1161.844    1161.801

================================================================================

     iter   Etot(hartree)      deltaE(h)  residm     vres2
 ETOT  1  -12.013654124946    -1.201E+01 2.174E-01 5.537E+01
 ETOT  2  -12.036027699422    -2.237E-02 1.940E-05 4.270E+00
 ETOT  3  -12.036146073461    -1.184E-04 3.898E-06 1.464E+00
 ETOT  4  -12.036211328694    -6.526E-05 6.273E-06 4.397E-02
 ETOT  5  -12.036211587305    -2.586E-07 9.121E-07 5.697E-03
 ETOT  6  -12.036211618292    -3.099E-08 4.982E-08 1.042E-03

 At SCF step    6, etot is converged : 
  for the second time, diff in etot=  3.099E-08 < toldfe=  1.000E-06

 Cartesian components of stress tensor (hartree/bohr^3)
  sigma(1 1)=  4.03958638E-04  sigma(3 2)=  0.00000000E+00
  sigma(2 2)=  4.03958638E-04  sigma(3 1)=  0.00000000E+00
  sigma(3 3)=  3.56898886E-04  sigma(2 1)=  0.00000000E+00

 Integrated electronic density in atomic spheres:
 ------------------------------------------------
 Atom  Sphere_radius  Integrated_density
    1        2.00000          4.73992493
    2        2.00000          4.73992493
================================================================================

 ----iterations are completed or convergence reached----

 Mean square residual over all n,k,spin=   2.5526E-09; max=  4.9822E-08
 reduced coordinates (array xred) for    2 atoms
       0.000000000000      0.000000000000      0.000000000000
       0.666666666667      0.333333333333      0.000000000000
 rms dE/dt=  5.6052E-28; max dE/dt=  8.0779E-28; dE/dt below (all hartree)
    1       0.000000000000     -0.000000000000      0.000000000000
    2      -0.000000000000      0.000000000000      0.000000000000

 cartesian coordinates (angstrom) at end:
    1      0.00000000000000     0.00000000000000     0.00000000000000
    2      1.22753976212826     0.70872041210209     0.00000000000000

 cartesian forces (hartree/bohr) at end:
    1     -0.00000000000000     0.00000000000000    -0.00000000000000
    2      0.00000000000000    -0.00000000000000    -0.00000000000000
 frms,max,avg= 1.0236994E-28 1.3403372E-28   0.000E+00  0.000E+00  0.000E+00 h/b

 cartesian forces (eV/Angstrom) at end:
    1     -0.00000000000000     0.00000000000000    -0.00000000000000
    2      0.00000000000000    -0.00000000000000    -0.00000000000000
 frms,max,avg= 5.2640737E-27 6.8922903E-27   0.000E+00  0.000E+00  0.000E+00 e/A
 length scales=  4.639427935300  4.639427935300 18.601215051000 bohr
              =  2.455079524257  2.455079524257  9.843339057070 angstroms
 prteigrs : about to open file graphene_xo_DS1_EIG
 Fermi (or HOMO) energy (hartree) =  -0.11300   Average Vxc (hartree)=  -0.16664
 Eigenvalues (hartree) for nkpt=   8  k points:
 kpt#   1, nband=  5, wtk=  0.03125, kpt=  0.0000  0.0000  0.1250 (reduced coord)
  -0.74408   -0.31089   -0.13584   -0.13584    0.09144
 prteigrs : prtvol=0 or 1, do not print more k-points.


--------------------------------------------------------------------------------
 Components of total free energy (in Hartree) :

    Kinetic energy  =  8.17941356453468E+00
    Hartree energy  =  2.31873899072499E+01
    XC energy       = -4.27357780319772E+00
    Ewald energy    =  1.35900591862076E+01
    PspCore energy  =  4.27252793134098E-02
    Loc. psp. energy= -5.41264893183273E+01
    NL   psp  energy=  1.36426756592779E+00
    >>>>>>>>> Etotal= -1.20362116182916E+01

 Other information on the energy :
    Total energy(eV)= -3.27521974565524E+02 ; Band energy (Ha)=  -2.8949240789E+00
--------------------------------------------------------------------------------

 Cartesian components of stress tensor (hartree/bohr^3)
  sigma(1 1)=  4.03958638E-04  sigma(3 2)=  0.00000000E+00
  sigma(2 2)=  4.03958638E-04  sigma(3 1)=  0.00000000E+00
  sigma(3 3)=  3.56898886E-04  sigma(2 1)=  0.00000000E+00

-Cartesian components of stress tensor (GPa)         [Pressure= -1.1423E+01 GPa]
- sigma(1 1)=  1.18848715E+01  sigma(3 2)=  0.00000000E+00
- sigma(2 2)=  1.18848715E+01  sigma(3 1)=  0.00000000E+00
- sigma(3 3)=  1.05003260E+01  sigma(2 1)=  0.00000000E+00

================================================================================
== DATASET  2 ==================================================================
-   nproc =    1

 mkfilename : getden/=0, take file _DEN from output of DATASET   1.

 Exchange-correlation functional for the present dataset will be:
  LDA: new Teter (4/93) with spin-polarized option - ixc=1
 Citation for XC functional:
  S. Goedecker, M. Teter, J. Huetter, PRB 54, 1703 (1996)

 Real(R)+Recip(G) space primitive vectors, cartesian coordinates (Bohr,Bohr^-1):
 R(1)=  4.6394279  0.0000000  0.0000000  G(1)=  0.2155438  0.1244443  0.0000000
 R(2)= -2.3197140  4.0178625  0.0000000  G(2)=  0.0000000  0.2488886  0.0000000
 R(3)=  0.0000000  0.0000000 18.6012151  G(3)=  0.0000000  0.0000000  0.0537599
 Unit cell volume ucvol=  3.4673750E+02 bohr^3
 Angles (23,13,12)=  9.00000000E+01  9.00000000E+01  1.20000000E+02 degrees

 getcut: wavevector=  0.0000  0.0000  0.0000  ngfft=  18  18  72
         ecut(hartree)=     17.000   => boxcut(ratio)=   2.08546
--------------------------------------------------------------------------------


================================================================================
 prteigrs : about to open file graphene_xo_DS2_EIG
 Non-SCF case, kpt    1 (  0.00000  0.00000  0.00000), residuals and eigenvalues=
  7.07E-13  5.89E-13  3.54E-13  6.28E-13  9.66E-13  8.62E-13  5.84E-12  3.26E-11
 -7.4443E-01 -3.1120E-01 -1.3621E-01 -1.3621E-01  9.0320E-02  1.5439E-01
  1.9528E-01  2.8379E-01
  prteigrs : nnsclo,ikpt=   10    1 max resid (incl. the buffer)=  3.25925E-11
 Non-SCF case, kpt    2 (  0.02941  0.00000  0.00000), residuals and eigenvalues=
  8.86E-13  4.56E-13  2.50E-13  6.23E-13  8.45E-13  3.33E-13  1.29E-11  6.98E-06
 -7.4367E-01 -3.1028E-01 -1.3889E-01 -1.3785E-01  9.1347E-02  1.5541E-01
  1.9630E-01  2.8460E-01
  prteigrs : nnsclo,ikpt=   10    2 max resid (incl. the buffer)=  6.97606E-06
 Non-SCF case, kpt    3 (  0.05882  0.00000  0.00000), residuals and eigenvalues=
  4.87E-13  4.97E-13  4.10E-13  7.72E-13  3.80E-13  7.21E-13  6.78E-12  1.09E-06
 -7.4139E-01 -3.0739E-01 -1.4794E-01 -1.4259E-01  9.4425E-02  1.5849E-01
  1.9934E-01  2.8612E-01
  prteigrs : nnsclo,ikpt=   10    3 max resid (incl. the buffer)=  1.09418E-06
 Non-SCF case, kpt    4 (  0.08824  0.00000  0.00000), residuals and eigenvalues=
  6.92E-13  2.71E-13  8.72E-13  6.73E-13  3.59E-13  9.47E-13  9.39E-13  8.47E-06
 -7.3761E-01 -3.0278E-01 -1.6195E-01 -1.4971E-01  9.9555E-02  1.6358E-01
  2.0442E-01  2.8694E-01
  prteigrs : nnsclo,ikpt=   10    4 max resid (incl. the buffer)=  8.46519E-06
 Non-SCF case, kpt    5 (  0.11765  0.00000  0.00000), residuals and eigenvalues=
  5.51E-13  4.28E-13  6.05E-13  6.76E-13  6.80E-13  2.84E-13  1.28E-12  2.68E-08
 -7.3230E-01 -2.9644E-01 -1.8051E-01 -1.5914E-01  1.0674E-01  1.7068E-01
  2.1153E-01  2.8723E-01
  prteigrs : nnsclo,ikpt=   10    5 max resid (incl. the buffer)=  2.68354E-08
 Non-SCF case, kpt    6 (  0.14706  0.00000  0.00000), residuals and eigenvalues=
  5.48E-13  3.83E-13  2.60E-13  4.88E-13  4.49E-13  3.48E-13  1.96E-11  2.61E-06
 -7.2550E-01 -2.8809E-01 -2.0225E-01 -1.7013E-01  1.1598E-01  1.7982E-01
  2.2067E-01  2.8687E-01
  prteigrs : nnsclo,ikpt=   10    6 max resid (incl. the buffer)=  2.61361E-06
 Non-SCF case, kpt    7 (  0.17647  0.00000  0.00000), residuals and eigenvalues=
  8.02E-13  7.95E-13  6.26E-13  2.04E-13  7.32E-13  1.26E-12  1.34E-11  1.32E-06
 -7.1720E-01 -2.7822E-01 -2.2730E-01 -1.8146E-01  1.2726E-01  1.9089E-01
  2.3181E-01  2.8503E-01
  prteigrs : nnsclo,ikpt=   10    7 max resid (incl. the buffer)=  1.32498E-06
 Non-SCF case, kpt    8 (  0.20588  0.00000  0.00000), residuals and eigenvalues=
  6.86E-13  6.54E-13  7.14E-13  3.57E-13  2.95E-13  6.54E-13  3.67E-09  5.22E-06
 -7.0745E-01 -2.6666E-01 -2.5441E-01 -1.9341E-01  1.4059E-01  2.0382E-01
  2.4485E-01  2.8239E-01
  prteigrs : nnsclo,ikpt=   10    8 max resid (incl. the buffer)=  5.22320E-06
 Non-SCF case, kpt    9 (  0.23529  0.00000  0.00000), residuals and eigenvalues=
  7.49E-13  5.61E-13  2.19E-13  6.06E-13  2.23E-13  1.13E-08  4.75E-08  7.29E-04
 -6.9620E-01 -2.8241E-01 -2.5345E-01 -2.0454E-01  1.5595E-01  2.1814E-01
  2.5935E-01  2.6882E-01
  prteigrs : nnsclo,ikpt=   10    9 max resid (incl. the buffer)=  7.29287E-04
 Non-SCF case, kpt   10 (  0.26471  0.00000  0.00000), residuals and eigenvalues=
  5.38E-13  1.88E-13  5.51E-13  8.95E-13  6.39E-13  5.40E-11  3.06E-11  3.86E-07
 -6.8349E-01 -3.1097E-01 -2.3865E-01 -2.1568E-01  1.7335E-01  2.2386E-01
  2.4247E-01  2.7007E-01
  prteigrs : nnsclo,ikpt=   10   10 max resid (incl. the buffer)=  3.85774E-07
 Non-SCF case, kpt   11 (  0.29412  0.00000  0.00000), residuals and eigenvalues=
  5.61E-13  3.99E-13  8.20E-13  5.56E-13  9.04E-13  2.58E-13  7.52E-13  3.71E-09
 -6.6938E-01 -3.4008E-01 -2.2593E-01 -2.2251E-01  1.9274E-01  1.9735E-01
  2.5737E-01  2.6849E-01
  prteigrs : nnsclo,ikpt=   10   11 max resid (incl. the buffer)=  3.71474E-09
 Non-SCF case, kpt   12 (  0.32353  0.00000  0.00000), residuals and eigenvalues=
  3.97E-13  2.89E-13  9.97E-13  4.26E-13  4.22E-13  6.35E-13  8.01E-11  2.56E-13
 -6.5387E-01 -3.6907E-01 -2.3461E-01 -2.0502E-01  1.6688E-01  2.1409E-01
  2.6515E-01  2.7782E-01
  prteigrs : nnsclo,ikpt=   10   12 max resid (incl. the buffer)=  8.01239E-11
 Non-SCF case, kpt   13 (  0.35294  0.00000  0.00000), residuals and eigenvalues=
  3.85E-13  4.77E-13  3.69E-13  3.50E-13  2.05E-13  6.70E-13  4.18E-13  3.97E-13
 -6.3707E-01 -3.9766E-01 -2.4241E-01 -1.8649E-01  1.3664E-01  2.3716E-01
  2.6185E-01  3.0052E-01
 Non-SCF case, kpt   14 (  0.38235  0.00000  0.00000), residuals and eigenvalues=
  5.25E-13  4.27E-13  8.91E-13  5.69E-13  1.49E-13  1.11E-13  4.05E-13  1.20E-12
 -6.1895E-01 -4.2558E-01 -2.4840E-01 -1.6753E-01  1.0721E-01  2.5579E-01
  2.6544E-01  3.2507E-01
  prteigrs : nnsclo,ikpt=   10   14 max resid (incl. the buffer)=  1.20151E-12
 Non-SCF case, kpt   15 (  0.41176  0.00000  0.00000), residuals and eigenvalues=
  8.05E-13  5.49E-13  8.86E-13  3.33E-13  8.49E-13  2.57E-13  5.67E-13  1.35E-12
 -5.9965E-01 -4.5249E-01 -2.5364E-01 -1.4895E-01  8.0497E-02  2.5504E-01
  2.9104E-01  3.5128E-01
  prteigrs : nnsclo,ikpt=   10   15 max resid (incl. the buffer)=  1.35019E-12
 Non-SCF case, kpt   16 (  0.44118  0.00000  0.00000), residuals and eigenvalues=
  4.57E-13  9.41E-13  4.41E-13  2.89E-13  5.19E-13  9.47E-13  6.41E-13  1.69E-12
 -5.7954E-01 -4.7824E-01 -2.5742E-01 -1.3181E-01  5.7450E-02  2.5335E-01
  3.2003E-01  3.7896E-01
  prteigrs : nnsclo,ikpt=   10   16 max resid (incl. the buffer)=  1.68568E-12
 Non-SCF case, kpt   17 (  0.47059  0.00000  0.00000), residuals and eigenvalues=
  8.65E-13  7.77E-13  2.41E-13  4.27E-13  5.23E-13  8.54E-13  8.30E-13  3.00E-06
 -5.5963E-01 -5.0148E-01 -2.5977E-01 -1.1895E-01  4.0972E-02  2.5224E-01
  3.5093E-01  4.0748E-01
  prteigrs : nnsclo,ikpt=   10   17 max resid (incl. the buffer)=  2.99603E-06
 Non-SCF case, kpt   18 (  0.50000  0.00000  0.00000), residuals and eigenvalues=
  6.68E-13  8.51E-13  1.49E-13  9.77E-13  6.08E-13  5.25E-13  6.82E-13  8.94E-12
 -5.4750E-01 -5.1458E-01 -2.6037E-01 -1.1404E-01  3.4692E-02  2.5191E-01
  3.8202E-01  3.8516E-01
  prteigrs : nnsclo,ikpt=   10   18 max resid (incl. the buffer)=  8.93602E-12
 Non-SCF case, kpt   19 (  0.48333  0.03333  0.00000), residuals and eigenvalues=
  4.46E-13  6.54E-13  8.30E-13  4.87E-13  5.13E-13  7.10E-13  4.71E-12  6.97E-12
 -5.4691E-01 -5.1399E-01 -2.6381E-01 -1.1303E-01  3.4621E-02  2.5635E-01
  3.8288E-01  3.8606E-01
  prteigrs : nnsclo,ikpt=   10   19 max resid (incl. the buffer)=  6.96989E-12
 Non-SCF case, kpt   20 (  0.46667  0.06667  0.00000), residuals and eigenvalues=
  8.32E-13  4.01E-13  5.49E-13  8.19E-13  5.51E-13  4.48E-13  2.14E-11  3.09E-11
 -5.4507E-01 -5.1204E-01 -2.7382E-01 -1.1003E-01  3.4209E-02  2.6922E-01
  3.8545E-01  3.8879E-01
  prteigrs : nnsclo,ikpt=   10   20 max resid (incl. the buffer)=  3.09057E-11
 Non-SCF case, kpt   21 (  0.45000  0.10000  0.00000), residuals and eigenvalues=
  5.78E-13  4.25E-13  2.63E-13  3.00E-13  6.91E-13  7.35E-13  1.35E-09  1.78E-09
 -5.4199E-01 -5.0890E-01 -2.8868E-01 -1.0556E-01  3.3195E-02  2.8952E-01
  3.8969E-01  3.9328E-01
  prteigrs : nnsclo,ikpt=   10   21 max resid (incl. the buffer)=  1.77645E-09
 Non-SCF case, kpt   22 (  0.43333  0.13333  0.00000), residuals and eigenvalues=
  8.37E-13  5.83E-13  3.34E-13  6.71E-13  6.44E-13  4.12E-13  6.49E-09  8.71E-09
 -5.3772E-01 -5.0457E-01 -3.0785E-01 -9.9106E-02  3.1170E-02  3.1571E-01
  3.9553E-01  3.9951E-01
  prteigrs : nnsclo,ikpt=   10   22 max resid (incl. the buffer)=  8.70652E-09
 Non-SCF case, kpt   23 (  0.41667  0.16667  0.00000), residuals and eigenvalues=
  6.90E-13  3.12E-13  1.73E-13  3.97E-13  6.65E-13  1.70E-10  7.45E-06  5.40E-05
 -5.3218E-01 -4.9923E-01 -3.2911E-01 -9.1212E-02  2.7735E-02  3.4617E-01
  3.9919E-01  4.0424E-01
  prteigrs : nnsclo,ikpt=   10   23 max resid (incl. the buffer)=  5.39723E-05
 Non-SCF case, kpt   24 (  0.40000  0.20000  0.00000), residuals and eigenvalues=
  4.55E-13  2.04E-13  7.85E-13  4.16E-13  3.82E-13  2.25E-10  3.49E-13  1.27E-06
 -5.2541E-01 -4.9299E-01 -3.5234E-01 -8.1438E-02  2.1959E-02  3.7885E-01
  3.8556E-01  4.1160E-01
  prteigrs : nnsclo,ikpt=   10   24 max resid (incl. the buffer)=  1.26614E-06
 Non-SCF case, kpt   25 (  0.38333  0.23333  0.00000), residuals and eigenvalues=
  6.79E-13  1.69E-13  5.48E-13  7.73E-13  4.32E-13  4.51E-13  3.94E-08  2.20E-07
 -5.1739E-01 -4.8645E-01 -3.7523E-01 -7.0042E-02  1.4367E-02  3.7306E-01
  4.1157E-01  4.2135E-01
  prteigrs : nnsclo,ikpt=   10   25 max resid (incl. the buffer)=  2.20449E-07
 Non-SCF case, kpt   26 (  0.36667  0.26667  0.00000), residuals and eigenvalues=
  3.92E-13  9.01E-13  2.85E-13  3.32E-13  3.82E-13  1.67E-13  1.76E-07  1.72E-06
 -5.0813E-01 -4.8079E-01 -3.9651E-01 -5.6897E-02  3.8634E-03  3.6323E-01
  4.3173E-01  4.3566E-01
  prteigrs : nnsclo,ikpt=   10   26 max resid (incl. the buffer)=  1.71536E-06
 Non-SCF case, kpt   27 (  0.35000  0.30000  0.00000), residuals and eigenvalues=
  7.02E-13  3.11E-13  6.52E-13  6.76E-13  3.89E-13  2.32E-13  1.54E-06  4.05E-06
 -4.9769E-01 -4.7894E-01 -4.1279E-01 -4.1991E-02 -9.4482E-03  3.5722E-01
  4.4186E-01  4.4744E-01
  prteigrs : nnsclo,ikpt=   10   27 max resid (incl. the buffer)=  4.05031E-06
 Non-SCF case, kpt   28 (  0.33333  0.33333  0.00000), residuals and eigenvalues=
  5.00E-13  3.48E-13  6.64E-13  4.98E-13  5.62E-13  2.22E-13  5.13E-09  2.85E-05
 -4.8599E-01 -4.8599E-01 -4.1852E-01 -2.5352E-02 -2.5352E-02  3.5528E-01
  4.5076E-01  4.5091E-01
  prteigrs : nnsclo,ikpt=   10   28 max resid (incl. the buffer)=  2.85049E-05
 Non-SCF case, kpt   29 (  0.31667  0.31667  0.00000), residuals and eigenvalues=
  7.65E-13  2.23E-13  8.01E-13  1.93E-13  8.48E-13  9.77E-13  7.84E-09  2.05E-05
 -5.0206E-01 -4.7321E-01 -4.1419E-01 -4.3820E-02 -7.5336E-03  3.5693E-01
  4.3142E-01  4.5702E-01
  prteigrs : nnsclo,ikpt=   10   29 max resid (incl. the buffer)=  2.04962E-05
 Non-SCF case, kpt   30 (  0.30000  0.30000  0.00000), residuals and eigenvalues=
  3.22E-13  4.37E-13  2.48E-13  4.70E-13  3.83E-13  5.81E-13  9.90E-13  1.13E-05
 -5.2220E-01 -4.5928E-01 -4.0360E-01 -6.3849E-02  1.1962E-02  3.6088E-01
  4.0223E-01  4.5953E-01
  prteigrs : nnsclo,ikpt=   10   30 max resid (incl. the buffer)=  1.12605E-05
 Non-SCF case, kpt   31 (  0.28333  0.28333  0.00000), residuals and eigenvalues=
  7.57E-13  2.67E-13  8.65E-13  8.33E-13  9.47E-13  6.73E-13  1.41E-12  4.71E-06
 -5.4347E-01 -4.4412E-01 -3.8981E-01 -8.4966E-02  3.2882E-02  3.6440E-01
  3.7118E-01  4.5528E-01
  prteigrs : nnsclo,ikpt=   10   31 max resid (incl. the buffer)=  4.70885E-06
 Non-SCF case, kpt   32 (  0.26667  0.26667  0.00000), residuals and eigenvalues=
  7.63E-13  1.69E-13  4.38E-13  5.18E-13  7.92E-13  3.86E-13  1.90E-11  1.11E-05
 -5.6474E-01 -4.2789E-01 -3.7435E-01 -1.0669E-01  5.5628E-02  3.4048E-01
  3.6270E-01  4.3867E-01
  prteigrs : nnsclo,ikpt=   10   32 max resid (incl. the buffer)=  1.10911E-05
 Non-SCF case, kpt   33 (  0.25000  0.25000  0.00000), residuals and eigenvalues=
  9.00E-13  5.39E-13  8.16E-13  3.80E-13  4.21E-13  1.90E-13  7.72E-10  3.59E-06
 -5.8527E-01 -4.1038E-01 -3.5721E-01 -1.2843E-01  7.9739E-02  3.1099E-01
  3.5178E-01  4.1370E-01
  prteigrs : nnsclo,ikpt=   10   33 max resid (incl. the buffer)=  3.58716E-06
 Non-SCF case, kpt   34 (  0.23333  0.23333  0.00000), residuals and eigenvalues=
  4.52E-13  1.99E-13  8.69E-13  2.37E-13  8.30E-13  2.00E-13  5.19E-13  2.84E-07
 -6.0492E-01 -3.9192E-01 -3.3929E-01 -1.4959E-01  1.0462E-01  2.8304E-01
  3.3366E-01  3.8669E-01
  prteigrs : nnsclo,ikpt=   10   34 max resid (incl. the buffer)=  2.83856E-07
 Non-SCF case, kpt   35 (  0.21667  0.21667  0.00000), residuals and eigenvalues=
  4.95E-13  7.69E-13  6.84E-13  3.02E-13  9.95E-13  9.27E-13  1.16E-11  6.18E-09
 -6.2352E-01 -3.7245E-01 -3.2053E-01 -1.7002E-01  1.3045E-01  2.5680E-01
  3.1261E-01  3.6077E-01
  prteigrs : nnsclo,ikpt=   10   35 max resid (incl. the buffer)=  6.18329E-09
 Non-SCF case, kpt   36 (  0.20000  0.20000  0.00000), residuals and eigenvalues=
  8.95E-13  6.79E-13  3.99E-13  8.36E-13  3.80E-13  6.43E-13  6.88E-12  1.09E-08
 -6.4096E-01 -3.5181E-01 -3.0103E-01 -1.8955E-01  1.5722E-01  2.3236E-01
  2.9111E-01  3.3653E-01
  prteigrs : nnsclo,ikpt=   10   36 max resid (incl. the buffer)=  1.09380E-08
 Non-SCF case, kpt   37 (  0.18333  0.18333  0.00000), residuals and eigenvalues=
  7.70E-13  2.49E-13  9.31E-13  4.73E-13  7.94E-13  7.86E-13  4.34E-13  1.50E-09
 -6.5720E-01 -3.3046E-01 -2.8148E-01 -2.0803E-01  1.8444E-01  2.0979E-01
  2.7034E-01  3.1405E-01
  prteigrs : nnsclo,ikpt=   10   37 max resid (incl. the buffer)=  1.49967E-09
 Non-SCF case, kpt   38 (  0.16667  0.16667  0.00000), residuals and eigenvalues=
  4.02E-13  4.76E-13  6.29E-13  7.52E-13  6.83E-13  8.52E-13  6.96E-13  2.79E-11
 -6.7213E-01 -3.0826E-01 -2.6161E-01 -2.2519E-01  1.8912E-01  2.1267E-01
  2.5085E-01  2.9348E-01
  prteigrs : nnsclo,ikpt=   10   38 max resid (incl. the buffer)=  2.78794E-11
 Non-SCF case, kpt   39 (  0.15000  0.15000  0.00000), residuals and eigenvalues=
  5.13E-13  5.88E-13  6.36E-13  2.31E-13  3.70E-13  9.42E-13  1.38E-09  3.97E-10
 -6.8571E-01 -2.8573E-01 -2.4198E-01 -2.4096E-01  1.7040E-01  2.3291E-01
  2.4053E-01  2.7484E-01
  prteigrs : nnsclo,ikpt=   10   39 max resid (incl. the buffer)=  1.37696E-09
 Non-SCF case, kpt   40 (  0.13333  0.13333  0.00000), residuals and eigenvalues=
  5.05E-13  7.54E-13  2.97E-13  7.41E-13  5.91E-13  4.33E-13  9.09E-12  6.59E-07
 -6.9796E-01 -2.6310E-01 -2.5534E-01 -2.2329E-01  1.5361E-01  2.1666E-01
  2.5812E-01  2.6774E-01
  prteigrs : nnsclo,ikpt=   10   40 max resid (incl. the buffer)=  6.58731E-07
 Non-SCF case, kpt   41 (  0.11667  0.11667  0.00000), residuals and eigenvalues=
  7.50E-13  9.10E-13  4.95E-13  5.05E-13  6.18E-13  5.08E-13  5.69E-11  1.90E-04
 -7.0880E-01 -2.6855E-01 -2.4022E-01 -2.0530E-01  1.3878E-01  2.0214E-01
  2.4336E-01  2.9564E-01
  prteigrs : nnsclo,ikpt=   10   41 max resid (incl. the buffer)=  1.90109E-04
 Non-SCF case, kpt   42 (  0.10000  0.10000  0.00000), residuals and eigenvalues=
  8.92E-13  1.70E-13  9.63E-13  8.96E-13  2.04E-13  7.54E-13  2.49E-12  1.53E-05
 -7.1823E-01 -2.7965E-01 -2.1759E-01 -1.8842E-01  1.2592E-01  1.8956E-01
  2.3058E-01  3.0441E-01
  prteigrs : nnsclo,ikpt=   10   42 max resid (incl. the buffer)=  1.53038E-05
 Non-SCF case, kpt   43 (  0.08333  0.08333  0.00000), residuals and eigenvalues=
  5.16E-13  5.40E-13  5.79E-13  2.78E-13  9.23E-13  3.61E-13  4.58E-13  2.39E-06
 -7.2619E-01 -2.8901E-01 -1.9627E-01 -1.7297E-01  1.1504E-01  1.7889E-01
  2.1978E-01  2.9782E-01
  prteigrs : nnsclo,ikpt=   10   43 max resid (incl. the buffer)=  2.39250E-06
 Non-SCF case, kpt   44 (  0.06667  0.06667  0.00000), residuals and eigenvalues=
  3.59E-13  1.81E-13  2.33E-13  2.29E-13  4.27E-13  3.15E-13  2.71E-12  5.38E-06
 -7.3275E-01 -2.9684E-01 -1.7720E-01 -1.6014E-01  1.0614E-01  1.7011E-01
  2.1095E-01  2.9276E-01
  prteigrs : nnsclo,ikpt=   10   44 max resid (incl. the buffer)=  5.38040E-06
 Non-SCF case, kpt   45 (  0.05000  0.05000  0.00000), residuals and eigenvalues=
  8.94E-13  8.64E-13  6.06E-13  2.24E-13  1.59E-13  7.41E-13  7.39E-11  6.98E-04
 -7.3785E-01 -3.0309E-01 -1.6036E-01 -1.5000E-01  9.9218E-02  1.6324E-01
  2.0409E-01  2.9557E-01
  prteigrs : nnsclo,ikpt=   10   45 max resid (incl. the buffer)=  6.98359E-04
 Non-SCF case, kpt   46 (  0.03333  0.03333  0.00000), residuals and eigenvalues=
  7.86E-13  2.94E-13  6.37E-13  6.06E-13  4.72E-13  8.52E-13  6.60E-11  1.48E-04
 -7.4151E-01 -3.0751E-01 -1.4734E-01 -1.4250E-01  9.4273E-02  1.5834E-01
  1.9919E-01  2.9070E-01
  prteigrs : nnsclo,ikpt=   10   46 max resid (incl. the buffer)=  1.48267E-04
 Non-SCF case, kpt   47 (  0.01667  0.01667  0.00000), residuals and eigenvalues=
  8.99E-13  3.35E-13  8.74E-13  6.54E-13  9.43E-13  9.24E-13  1.70E-11  4.19E-06
 -7.4370E-01 -3.1032E-01 -1.3877E-01 -1.3781E-01  9.1309E-02  1.5537E-01
  1.9626E-01  2.8465E-01
  prteigrs : nnsclo,ikpt=   10   47 max resid (incl. the buffer)=  4.18952E-06
 Non-SCF case, kpt   48 (  0.00000  0.00000  0.00000), residuals and eigenvalues=
  7.07E-13  5.89E-13  3.54E-13  6.28E-13  9.66E-13  8.62E-13  5.84E-12  3.26E-11
 -7.4443E-01 -3.1120E-01 -1.3621E-01 -1.3621E-01  9.0320E-02  1.5439E-01
  1.9528E-01  2.8379E-01
  prteigrs : nnsclo,ikpt=   10   48 max resid (incl. the buffer)=  3.25925E-11


 scprqt:  WARNING -
  nstep=   10 was not enough non-SCF iterations to converge;
  maximum residual=  1.133E-08 exceeds tolwfr=  1.000E-12

 Integrated electronic density in atomic spheres:
 ------------------------------------------------
 Atom  Sphere_radius  Integrated_density
    1        2.00000          4.73992493
    2        2.00000          4.73992493
================================================================================

 ----iterations are completed or convergence reached----

 Mean square residual over all n,k,spin=   5.1394E-06; max=  7.2929E-04
 reduced coordinates (array xred) for    2 atoms
       0.000000000000      0.000000000000      0.000000000000
       0.666666666667      0.333333333333      0.000000000000

 cartesian coordinates (angstrom) at end:
    1      0.00000000000000     0.00000000000000     0.00000000000000
    2      1.22753976212826     0.70872041210209     0.00000000000000
 length scales=  4.639427935300  4.639427935300 18.601215051000 bohr
              =  2.455079524257  2.455079524257  9.843339057070 angstroms
 prteigrs : about to open file graphene_xo_DS2_EIG
 Eigenvalues (   eV  ) for nkpt=  48  k points:
 kpt#   1, nband=  8, wtk=  1.00000, kpt=  0.0000  0.0000  0.0000 (reduced coord)
 -20.25704   -8.46823   -3.70641   -3.70641    2.45774    4.20110    5.31390    7.72233
 kpt#   2, nband=  8, wtk=  1.00000, kpt=  0.0294  0.0000  0.0000 (reduced coord)
 -20.23627   -8.44327   -3.77944   -3.75119    2.48567    4.22882    5.34153    7.74446
 kpt#   3, nband=  8, wtk=  1.00000, kpt=  0.0588  0.0000  0.0000 (reduced coord)
 -20.17426   -8.36454   -4.02572   -3.88021    2.56942    4.31264    5.42442    7.78573
 kpt#   4, nband=  8, wtk=  1.00000, kpt=  0.0882  0.0000  0.0000 (reduced coord)
 -20.07127   -8.23912   -4.40700   -4.07390    2.70902    4.45120    5.56259    7.80816
 kpt#   5, nband=  8, wtk=  1.00000, kpt=  0.1176  0.0000  0.0000 (reduced coord)
 -19.92703   -8.06661   -4.91205   -4.33045    2.90451    4.64442    5.75608    7.81597
 kpt#   6, nband=  8, wtk=  1.00000, kpt=  0.1471  0.0000  0.0000 (reduced coord)
 -19.74198   -7.83931   -5.50347   -4.62955    3.15593    4.89324    6.00484    7.80625
 kpt#   7, nband=  8, wtk=  1.00000, kpt=  0.1765  0.0000  0.0000 (reduced coord)
 -19.51608   -7.57073   -6.18507   -4.93788    3.46305    5.19450    6.30784    7.75620
 kpt#   8, nband=  8, wtk=  1.00000, kpt=  0.2059  0.0000  0.0000 (reduced coord)
 -19.25081   -7.25622   -6.92296   -5.26291    3.82565    5.54629    6.66257    7.68428
 kpt#   9, nband=  8, wtk=  1.00000, kpt=  0.2353  0.0000  0.0000 (reduced coord)
 -18.94455   -7.68470   -6.89664   -5.56583    4.24375    5.93581    7.05721    7.31500
 kpt#  10, nband=  8, wtk=  1.00000, kpt=  0.2647  0.0000  0.0000 (reduced coord)
 -18.59865   -8.46201   -6.49406   -5.86889    4.71704    6.09167    6.59802    7.34890
 kpt#  11, nband=  8, wtk=  1.00000, kpt=  0.2941  0.0000  0.0000 (reduced coord)
 -18.21470   -9.25393   -6.14785   -6.05471    5.24469    5.37008    7.00330    7.30611
 kpt#  12, nband=  8, wtk=  1.00000, kpt=  0.3235  0.0000  0.0000 (reduced coord)
 -17.79272  -10.04287   -6.38404   -5.57901    4.54106    5.82559    7.21517    7.55973
 kpt#  13, nband=  8, wtk=  1.00000, kpt=  0.3529  0.0000  0.0000 (reduced coord)
 -17.33559  -10.82086   -6.59642   -5.07453    3.71815    6.45353    7.12532    8.17770
 kpt#  14, nband=  8, wtk=  1.00000, kpt=  0.3824  0.0000  0.0000 (reduced coord)
 -16.84248  -11.58071   -6.75934   -4.55864    2.91731    6.96042    7.22297    8.84560
 kpt#  15, nband=  8, wtk=  1.00000, kpt=  0.4118  0.0000  0.0000 (reduced coord)
 -16.31740  -12.31288   -6.90196   -4.05303    2.19043    6.93988    7.91966    9.55871
 kpt#  16, nband=  8, wtk=  1.00000, kpt=  0.4412  0.0000  0.0000 (reduced coord)
 -15.76996  -13.01354   -7.00486   -3.58685    1.56329    6.89397    8.70847   10.31212
 kpt#  17, nband=  8, wtk=  1.00000, kpt=  0.4706  0.0000  0.0000 (reduced coord)
 -15.22822  -13.64605   -7.06859   -3.23669    1.11491    6.86383    9.54936   11.08818
 kpt#  18, nband=  8, wtk=  1.00000, kpt=  0.5000  0.0000  0.0000 (reduced coord)
 -14.89819  -14.00238   -7.08499   -3.10313    0.94403    6.85472   10.39538   10.48081
 kpt#  19, nband=  8, wtk=  1.00000, kpt=  0.4833  0.0333  0.0000 (reduced coord)
 -14.88211  -13.98649   -7.17860   -3.07567    0.94209    6.97556   10.41882   10.50534
 kpt#  20, nband=  8, wtk=  1.00000, kpt=  0.4667  0.0667  0.0000 (reduced coord)
 -14.83205  -13.93330   -7.45113   -2.99398    0.93088    7.32581   10.48872   10.57946
 kpt#  21, nband=  8, wtk=  1.00000, kpt=  0.4500  0.1000  0.0000 (reduced coord)
 -14.74821  -13.84776   -7.85532   -2.87231    0.90328    7.87815   10.60407   10.70176
 kpt#  22, nband=  8, wtk=  1.00000, kpt=  0.4333  0.1333  0.0000 (reduced coord)
 -14.63213  -13.72999   -8.37697   -2.69681    0.84818    8.59081   10.76294   10.87118
 kpt#  23, nband=  8, wtk=  1.00000, kpt=  0.4167  0.1667  0.0000 (reduced coord)
 -14.48142  -13.58486   -8.95563   -2.48200    0.75470    9.41974   10.86255   10.99989
 kpt#  24, nband=  8, wtk=  1.00000, kpt=  0.4000  0.2000  0.0000 (reduced coord)
 -14.29723  -13.41481   -9.58774   -2.21603    0.59753   10.30915   10.49161   11.20026
 kpt#  25, nband=  8, wtk=  1.00000, kpt=  0.3833  0.2333  0.0000 (reduced coord)
 -14.07883  -13.23705  -10.21058   -1.90595    0.39095   10.15155   11.19933   11.46544
 kpt#  26, nband=  8, wtk=  1.00000, kpt=  0.3667  0.2667  0.0000 (reduced coord)
 -13.82696  -13.08292  -10.78960   -1.54825    0.10513    9.88400   11.74783   11.85493
 kpt#  27, nband=  8, wtk=  1.00000, kpt=  0.3500  0.3000  0.0000 (reduced coord)
 -13.54276  -13.03273  -11.23261   -1.14263   -0.25710    9.72045   12.02351   12.17552
 kpt#  28, nband=  8, wtk=  1.00000, kpt=  0.3333  0.3333  0.0000 (reduced coord)
 -13.22434  -13.22434  -11.38838   -0.68987   -0.68987    9.66770   12.26569   12.26988
 kpt#  29, nband=  8, wtk=  1.00000, kpt=  0.3167  0.3167  0.0000 (reduced coord)
 -13.66174  -12.87672  -11.27059   -1.19241   -0.20500    9.71267   11.73951   12.43619
 kpt#  30, nband=  8, wtk=  1.00000, kpt=  0.3000  0.3000  0.0000 (reduced coord)
 -14.20980  -12.49776  -10.98250   -1.73742    0.32552    9.82003   10.94516   12.50453
 kpt#  31, nband=  8, wtk=  1.00000, kpt=  0.2833  0.2833  0.0000 (reduced coord)
 -14.78855  -12.08503  -10.60722   -2.31204    0.89476    9.91570   10.10025   12.38891
 kpt#  32, nband=  8, wtk=  1.00000, kpt=  0.2667  0.2667  0.0000 (reduced coord)
 -15.36724  -11.64346  -10.18646   -2.90329    1.51373    9.26488    9.86955   11.93693
 kpt#  33, nband=  8, wtk=  1.00000, kpt=  0.2500  0.2500  0.0000 (reduced coord)
 -15.92605  -11.16708   -9.72028   -3.49467    2.16981    8.46252    9.57241   11.25732
 kpt#  34, nband=  8, wtk=  1.00000, kpt=  0.2333  0.2333  0.0000 (reduced coord)
 -16.46081  -10.66465   -9.23253   -4.07047    2.84687    7.70198    9.07929   10.52230
 kpt#  35, nband=  8, wtk=  1.00000, kpt=  0.2167  0.2167  0.0000 (reduced coord)
 -16.96686  -10.13481   -8.72201   -4.62645    3.54972    6.98779    8.50643    9.81717
 kpt#  36, nband=  8, wtk=  1.00000, kpt=  0.2000  0.2000  0.0000 (reduced coord)
 -17.44140   -9.57329   -8.19146   -5.15786    4.27811    6.32293    7.92154    9.15734
 kpt#  37, nband=  8, wtk=  1.00000, kpt=  0.1833  0.1833  0.0000 (reduced coord)
 -17.88344   -8.99229   -7.65940   -5.66079    5.01899    5.70857    7.35639    8.54572
 kpt#  38, nband=  8, wtk=  1.00000, kpt=  0.1667  0.1667  0.0000 (reduced coord)
 -18.28949   -8.38830   -7.11868   -6.12786    5.14635    5.78714    6.82600    7.98607
 kpt#  39, nband=  8, wtk=  1.00000, kpt=  0.1500  0.1500  0.0000 (reduced coord)
 -18.65899   -7.77514   -6.58474   -6.55698    4.63671    6.33779    6.54527    7.47874
 kpt#  40, nband=  8, wtk=  1.00000, kpt=  0.1333  0.1333  0.0000 (reduced coord)
 -18.99257   -7.15934   -6.94814   -6.07591    4.17982    5.89556    7.02372    7.28562
 kpt#  41, nband=  8, wtk=  1.00000, kpt=  0.1167  0.1167  0.0000 (reduced coord)
 -19.28752   -7.30752   -6.53673   -5.58650    3.77628    5.50041    6.62216    8.04473
 kpt#  42, nband=  8, wtk=  1.00000, kpt=  0.1000  0.1000  0.0000 (reduced coord)
 -19.54392   -7.60953   -5.92095   -5.12707    3.42646    5.15818    6.27447    8.28352
 kpt#  43, nband=  8, wtk=  1.00000, kpt=  0.0833  0.0833  0.0000 (reduced coord)
 -19.76055   -7.86449   -5.34067   -4.70669    3.13050    4.86783    5.98064    8.10407
 kpt#  44, nband=  8, wtk=  1.00000, kpt=  0.0667  0.0667  0.0000 (reduced coord)
 -19.93919   -8.07751   -4.82179   -4.35765    2.88822    4.62892    5.74027    7.96643
 kpt#  45, nband=  8, wtk=  1.00000, kpt=  0.0500  0.0500  0.0000 (reduced coord)
 -20.07789   -8.24761   -4.36370   -4.08171    2.69985    4.44203    5.55357    8.04275
 kpt#  46, nband=  8, wtk=  1.00000, kpt=  0.0333  0.0333  0.0000 (reduced coord)
 -20.17749   -8.36786   -4.00943   -3.87775    2.56531    4.30863    5.42034    7.91037
 kpt#  47, nband=  8, wtk=  1.00000, kpt=  0.0167  0.0167  0.0000 (reduced coord)
 -20.23703   -8.44418   -3.77620   -3.74997    2.48464    4.22781    5.34052    7.74559
 kpt#  48, nband=  8, wtk=  1.00000, kpt=  0.0000  0.0000  0.0000 (reduced coord)
 -20.25704   -8.46823   -3.70641   -3.70641    2.45774    4.20110    5.31390    7.72233

== END DATASET(S) ==============================================================
================================================================================
  
 -outvars: echo values of variables after computation  --------
            acell      4.6394279353E+00  4.6394279353E+00  1.8601215051E+01 Bohr
              amu      1.20110000E+01
           diemac      1.20000000E+01
             ecut      1.70000000E+01 Hartree
           enunit1          0
           enunit2          1
           etotal1    -1.2036211618E+01
            fcart1    -1.1607660516E-28  1.3403371848E-28 -0.0000000000E+00
                       1.1607660516E-28 -1.3403371848E-28 -0.0000000000E+00
-          fftalg         112
           getden1          0
           getden2         -1
             iscf1          7
             iscf2         -2
           istwfk2       2    0    0    0    0    0    0    0    0    0
                         0    0    0    0    0    0    0    3    0    0
                         0    0    0    0    0    0    0    0    0    0
                         0    0    0    0    0    0    0    0    0    0
                         0    0    0    0    0    0    0    2
           jdtset        1    2
              kpt1     0.00000000E+00  0.00000000E+00  1.25000000E-01
                       2.50000000E-01  0.00000000E+00  1.25000000E-01
                       5.00000000E-01  0.00000000E+00  1.25000000E-01
                       2.50000000E-01  2.50000000E-01  1.25000000E-01
                       0.00000000E+00  0.00000000E+00  3.75000000E-01
                       2.50000000E-01  0.00000000E+00  3.75000000E-01
                       5.00000000E-01  0.00000000E+00  3.75000000E-01
                       2.50000000E-01  2.50000000E-01  3.75000000E-01
              kpt2     0.00000000E+00  0.00000000E+00  0.00000000E+00
                       2.94117647E-02  0.00000000E+00  0.00000000E+00
                       5.88235294E-02  0.00000000E+00  0.00000000E+00
                       8.82352941E-02  0.00000000E+00  0.00000000E+00
                       1.17647059E-01  0.00000000E+00  0.00000000E+00
                       1.47058824E-01  0.00000000E+00  0.00000000E+00
                       1.76470588E-01  0.00000000E+00  0.00000000E+00
                       2.05882353E-01  0.00000000E+00  0.00000000E+00
                       2.35294118E-01  0.00000000E+00  0.00000000E+00
                       2.64705882E-01  0.00000000E+00  0.00000000E+00
                       2.94117647E-01  0.00000000E+00  0.00000000E+00
                       3.23529412E-01  0.00000000E+00  0.00000000E+00
                       3.52941176E-01  0.00000000E+00  0.00000000E+00
                       3.82352941E-01  0.00000000E+00  0.00000000E+00
                       4.11764706E-01  0.00000000E+00  0.00000000E+00
                       4.41176471E-01  0.00000000E+00  0.00000000E+00
                       4.70588235E-01  0.00000000E+00  0.00000000E+00
                       5.00000000E-01  0.00000000E+00  0.00000000E+00
                       4.83333333E-01  3.33333333E-02  0.00000000E+00
                       4.66666667E-01  6.66666667E-02  0.00000000E+00
                       4.50000000E-01  1.00000000E-01  0.00000000E+00
                       4.33333333E-01  1.33333333E-01  0.00000000E+00
                       4.16666667E-01  1.66666667E-01  0.00000000E+00
                       4.00000000E-01  2.00000000E-01  0.00000000E+00
                       3.83333333E-01  2.33333333E-01  0.00000000E+00
                       3.66666667E-01  2.66666667E-01  0.00000000E+00
                       3.50000000E-01  3.00000000E-01  0.00000000E+00
                       3.33333333E-01  3.33333333E-01  0.00000000E+00
                       3.16666667E-01  3.16666667E-01  0.00000000E+00
                       3.00000000E-01  3.00000000E-01  0.00000000E+00
                       2.83333333E-01  2.83333333E-01  0.00000000E+00
                       2.66666667E-01  2.66666667E-01  0.00000000E+00
                       2.50000000E-01  2.50000000E-01  0.00000000E+00
                       2.33333333E-01  2.33333333E-01  0.00000000E+00
                       2.16666667E-01  2.16666667E-01  0.00000000E+00
                       2.00000000E-01  2.00000000E-01  0.00000000E+00
                       1.83333333E-01  1.83333333E-01  0.00000000E+00
                       1.66666667E-01  1.66666667E-01  0.00000000E+00
                       1.50000000E-01  1.50000000E-01  0.00000000E+00
                       1.33333333E-01  1.33333333E-01  0.00000000E+00
                       1.16666667E-01  1.16666667E-01  0.00000000E+00
                       1.00000000E-01  1.00000000E-01  0.00000000E+00
                       8.33333333E-02  8.33333333E-02  0.00000000E+00
                       6.66666667E-02  6.66666667E-02  0.00000000E+00
                       5.00000000E-02  5.00000000E-02  0.00000000E+00
                       3.33333333E-02  3.33333333E-02  0.00000000E+00
                       1.66666667E-02  1.66666667E-02  0.00000000E+00
                       0.00000000E+00  0.00000000E+00  0.00000000E+00
           kptopt1          1
           kptopt2         -3
         kptrlatt        4    0    0      0    4    0      0    0    4
          kptrlen1     1.85577117E+01
          kptrlen2     3.00000000E+01
P           mkmem1          8
P           mkmem2         48
            natom           2
            nband1          5
            nband2          8
           nbdbuf1          0
           nbdbuf2          2
           ndtset           2
            ngfft          18      18      72
             nkpt1          8
             nkpt2         48
            nstep          10
             nsym          24
           ntypat           1
              occ      2.000000  2.000000  2.000000  2.000000  0.000000
            rprim      1.0000000000E+00  0.0000000000E+00  0.0000000000E+00
                      -5.0000000000E-01  8.6602540378E-01  0.0000000000E+00
                       0.0000000000E+00  0.0000000000E+00  1.0000000000E+00
           shiftk1     0.00000000E+00  0.00000000E+00  5.00000000E-01
           shiftk2     5.00000000E-01  5.00000000E-01  5.00000000E-01
          spgroup         191
           strten1     4.0395863795E-04  4.0395863796E-04  3.5689888624E-04
                       0.0000000000E+00  0.0000000000E+00  0.0000000000E+00
           symrel      1  0  0   0  1  0   0  0  1      -1  0  0   0 -1  0   0  0 -1
                       0  1  0   1  0  0   0  0  1       0 -1  0  -1  0  0   0  0 -1
                       1  1  0  -1  0  0   0  0  1      -1 -1  0   1  0  0   0  0 -1
                      -1  0  0   1  1  0   0  0  1       1  0  0  -1 -1  0   0  0 -1
                       0  1  0  -1 -1  0   0  0  1       0 -1  0   1  1  0   0  0 -1
                      -1 -1  0   0  1  0   0  0  1       1  1  0   0 -1  0   0  0 -1
                      -1  0  0   0 -1  0   0  0  1       1  0  0   0  1  0   0  0 -1
                       0 -1  0  -1  0  0   0  0  1       0  1  0   1  0  0   0  0 -1
                      -1 -1  0   1  0  0   0  0  1       1  1  0  -1  0  0   0  0 -1
                       1  0  0  -1 -1  0   0  0  1      -1  0  0   1  1  0   0  0 -1
                       0 -1  0   1  1  0   0  0  1       0  1  0  -1 -1  0   0  0 -1
                       1  1  0   0 -1  0   0  0  1      -1 -1  0   0  1  0   0  0 -1
            tnons      0.0000000  0.0000000  0.0000000    -0.3333333  0.3333333  0.0000000
                      -0.3333333  0.3333333  0.0000000     0.0000000  0.0000000  0.0000000
                      -0.3333333  0.3333333  0.0000000     0.0000000  0.0000000  0.0000000
                       0.0000000  0.0000000  0.0000000    -0.3333333  0.3333333  0.0000000
                       0.0000000  0.0000000  0.0000000    -0.3333333  0.3333333  0.0000000
                      -0.3333333  0.3333333  0.0000000     0.0000000  0.0000000  0.0000000
                      -0.3333333  0.3333333  0.0000000     0.0000000  0.0000000  0.0000000
                       0.0000000  0.0000000  0.0000000    -0.3333333  0.3333333  0.0000000
                       0.0000000  0.0000000  0.0000000    -0.3333333  0.3333333  0.0000000
                      -0.3333333  0.3333333  0.0000000     0.0000000  0.0000000  0.0000000
                      -0.3333333  0.3333333  0.0000000     0.0000000  0.0000000  0.0000000
                       0.0000000  0.0000000  0.0000000    -0.3333333  0.3333333  0.0000000
           toldfe1     1.00000000E-06 Hartree
           toldfe2     0.00000000E+00 Hartree
           tolwfr1     0.00000000E+00
           tolwfr2     1.00000000E-12
            typat      1  1
              wtk1       0.03125    0.18750    0.09375    0.18750    0.03125    0.18750
                         0.09375    0.18750
              wtk2       1.00000    1.00000    1.00000    1.00000    1.00000    1.00000
                         1.00000    1.00000    1.00000    1.00000    1.00000    1.00000
                         1.00000    1.00000    1.00000    1.00000    1.00000    1.00000
                         1.00000    1.00000    1.00000    1.00000    1.00000    1.00000
                         1.00000    1.00000    1.00000    1.00000    1.00000    1.00000
                         1.00000    1.00000    1.00000    1.00000    1.00000    1.00000
                         1.00000    1.00000    1.00000    1.00000    1.00000    1.00000
                         1.00000    1.00000    1.00000    1.00000    1.00000    1.00000
           xangst      0.0000000000E+00  0.0000000000E+00  0.0000000000E+00
                       1.2275397621E+00  7.0872041210E-01  0.0000000000E+00
            xcart      0.0000000000E+00  0.0000000000E+00  0.0000000000E+00
                       2.3197139676E+00  1.3392874837E+00  0.0000000000E+00
             xred      0.0000000000E+00  0.0000000000E+00  0.0000000000E+00
                       6.6666666667E-01  3.3333333333E-01  0.0000000000E+00
            znucl        6.00000

================================================================================

- Total cpu        time (s,m,h):         47.0        0.78      0.013
- Total wall clock time (s,m,h):         13.1        0.22      0.004
-
- For major independent code sections, cpu and wall times (sec),
-  as well as % of the time and number of calls for node 0-
-<BEGIN_TIMER mpi_nprocs = 1, omp_nthreads = 1, mpi_rank = 0>
- cpu_time =           47.0, wall_time =           13.1
-
- routine                        cpu     %       wall     %      number of calls  Gflops    Speedup Efficacity
-                                                                  (-1=no count)
- fourwf%(pot)                  34.256  73.0      9.141  69.8          15379      -1.00        3.75       3.75
- projbd                         5.288  11.3      1.357  10.4          23478      -1.00        3.90       3.90
- nonlop(apply)                  1.564   3.3      0.400   3.1          15379      -1.00        3.91       3.91
- vtowfk(ssdiag)                 1.136   2.4      0.382   2.9             -1      -1.00        2.97       2.97
- getghc-other                   0.844   1.8      0.234   1.8             -1      -1.00        3.61       3.61
- pspini                         0.360   0.8      0.359   2.7              2      -1.00        1.00       1.00
- others (107)                   0.988   2.1      0.391   3.0             -1      -1.00        2.53       2.53
-<END_TIMER>
-
- subtotal                      44.436  94.6     12.264  93.7                                  3.62       3.62

- For major independent code sections, cpu and wall times (sec),
- as well as % of the total time and number of calls 

-<BEGIN_TIMER mpi_nprocs = 1, omp_nthreads = 1, mpi_rank = world>
- cpu_time =          47.0, wall_time =          13.1
-
- routine                         cpu     %       wall     %      number of calls Gflops    Speedup Efficacity
-                                                                  (-1=no count)
- fourwf%(pot)                  34.256  73.0      9.141  69.8          15379      -1.00        3.75       3.75
- projbd                         5.288  11.3      1.357  10.4          23478      -1.00        3.90       3.90
- nonlop(apply)                  1.564   3.3      0.400   3.1          15379      -1.00        3.91       3.91
- vtowfk(ssdiag)                 1.136   2.4      0.382   2.9             -1      -1.00        2.97       2.97
- getghc-other                   0.844   1.8      0.234   1.8             -1      -1.00        3.61       3.61
- pspini                         0.360   0.8      0.359   2.7              2      -1.00        1.00       1.00
- others (107)                   0.988   2.1      0.391   3.0             -1      -1.00        2.53       2.53
-<END_TIMER>

- subtotal                      44.436  94.6     12.264  93.7                                  3.62       3.62

================================================================================

 Suggested references for the acknowledgment of ABINIT usage.

 The users of ABINIT have little formal obligations with respect to the ABINIT group
 (those specified in the GNU General Public License, http://www.gnu.org/copyleft/gpl.txt).
 However, it is common practice in the scientific literature,
 to acknowledge the efforts of people that have made the research possible.
 In this spirit, please find below suggested citations of work written by ABINIT developers,
 corresponding to implementations inside of ABINIT that you have used in the present run.
 Note also that it will be of great value to readers of publications presenting these results,
 to read papers enabling them to understand the theoretical formalism and details
 of the ABINIT implementation.
 For information on why they are suggested, see also http://www.abinit.org/about/?text=acknowledgments.
-
- [1] Recent developments in the ABINIT software package.
- Computer Phys. Comm. 205, 106 (2016).
- X.Gonze, F.Jollet, F.Abreu Araujo, D.Adams, B.Amadon, T.Applencourt,
- C.Audouze, J.-M.Beuken, J.Bieder, A.Bokhanchuk, E.Bousquet, F.Bruneval
- D.Caliste, M.Cote, F.Dahm, F.Da Pieve, M.Delaveau, M.Di Gennaro,
- B.Dorado, C.Espejo, G.Geneste, L.Genovese, A.Gerossier, M.Giantomassi,
- Y.Gillet, D.R.Hamann, L.He, G.Jomard, J.Laflamme Janssen, S.Le Roux,
- A.Levitt, A.Lherbier, F.Liu, I.Lukacevic, A.Martin, C.Martins,
- M.J.T.Oliveira, S.Ponce, Y.Pouillon, T.Rangel, G.-M.Rignanese,
- A.H.Romero, B.Rousseau, O.Rubel, A.A.Shukri, M.Stankovski, M.Torrent,
- M.J.Van Setten, B.Van Troeye, M.J.Verstraete, D.Waroquier, J.Wiktor,
- B.Xue, A.Zhou, J.W.Zwanziger.
- Comment : the fourth generic paper describing the ABINIT project.
- Note that a version of this paper, that is not formatted for Computer Phys. Comm. 
- is available at http://www.abinit.org/about/ABINIT16.pdf .
- The licence allows the authors to put it on the Web.
-
- [2] ABINIT : First-principles approach of materials and nanosystem properties.
- Computer Phys. Comm. 180, 2582-2615 (2009).
- X. Gonze, B. Amadon, P.-M. Anglade, J.-M. Beuken, F. Bottin, P. Boulanger, F. Bruneval,
- D. Caliste, R. Caracas, M. Cote, T. Deutsch, L. Genovese, Ph. Ghosez, M. Giantomassi
- S. Goedecker, D.R. Hamann, P. Hermet, F. Jollet, G. Jomard, S. Leroux, M. Mancini, S. Mazevet,
- M.J.T. Oliveira, G. Onida, Y. Pouillon, T. Rangel, G.-M. Rignanese, D. Sangalli, R. Shaltaf,
- M. Torrent, M.J. Verstraete, G. Zerah, J.W. Zwanziger
- Comment : the third generic paper describing the ABINIT project.
- Note that a version of this paper, that is not formatted for Computer Phys. Comm. 
- is available at http://www.abinit.org/about/ABINIT_CPC_v10.pdf .
- The licence allows the authors to put it on the Web.
-
- [3] A brief introduction to the ABINIT software package.
- Z. Kristallogr. 220, 558-562 (2005).
- X. Gonze, G.-M. Rignanese, M. Verstraete, J.-M. Beuken, Y. Pouillon, R. Caracas, F. Jollet,
- M. Torrent, G. Zerah, M. Mikami, Ph. Ghosez, M. Veithen, J.-Y. Raty, V. Olevano, F. Bruneval,
- L. Reining, R. Godby, G. Onida, D.R. Hamann, and D.C. Allan.
- Comment : the second generic paper describing the ABINIT project. Note that this paper
- should be cited especially if you are using the GW part of ABINIT, as several authors
- of this part are not in the list of authors of the first or third paper.
- The .pdf of the latter paper is available at http://www.abinit.org/about/zfk_0505-06_558-562.pdf.
- Note that it should not redistributed (Copyright by Oldenburg Wissenshaftverlag,
- the licence allows the authors to put it on the Web).
-
- And optionally:
-
- [4] First-principles computation of material properties : the ABINIT software project. 
- X. Gonze, J.-M. Beuken, R. Caracas, F. Detraux, M. Fuchs, G.-M. Rignanese, L. Sindic,
- M. Verstraete, G. Zerah, F. Jollet, M. Torrent, A. Roy, M. Mikami, Ph. Ghosez, J.-Y. Raty, D.C. Allan.
- Computational Materials Science 25, 478-492 (2002). http://dx.doi.org/10.1016/S0927-0256(02)00325-7
- Comment : the original paper describing the ABINIT project.
-
- Proc.   0 individual time (sec): cpu=         47.0  wall=         13.1

================================================================================

 Calculation completed.
.Delivered  12 WARNINGs and   2 COMMENTs to log file.
+Overall time at end (sec) : cpu=         47.0  wall=         13.1
