  ABINIT 8.4.1
  
  Give name for formatted input file: 
graphene.in
  Give name for formatted output file:
graphene.out
  Give root name for generic input files:
graphene_xi
  Give root name for generic output files:
graphene_xo
  Give root name for generic temporary files:
graphene_x

--- !COMMENT
src_file: isfile.F90
src_line: 109
message: |
    Output file graphene.out
     already exists.
...


--- !COMMENT
src_file: isfile.F90
src_line: 133
message: |
    Renaming old graphene.out to graphene.out0013
...


.Version 8.4.1 of ABINIT 
.(sequential version, prepared for a x86_64_linux_gnu7.0 computer) 

.Copyright (C) 1998-2017 ABINIT group . 
 ABINIT comes with ABSOLUTELY NO WARRANTY.
 It is free software, and you are welcome to redistribute it
 under certain conditions (GNU General Public License,
 see ~abinit/COPYING or http://www.gnu.org/copyleft/gpl.txt).

 ABINIT is a project of the Universite Catholique de Louvain,
 Corning Inc. and other collaborators, see ~abinit/doc/developers/contributors.txt .
 Please read ~abinit/doc/users/acknowledgments.html for suggested
 acknowledgments of the ABINIT effort.
 For more information, see http://www.abinit.org .

.Starting date : Mon  7 Aug 2017.
- ( at 12h32 )
  

 ++++++++++++++++++++++++++++++++++++++++++++++++++++++++++++++++++++++++++++++

 === Build Information === 
  Version       : 8.4.1
  Build target  : x86_64_linux_gnu7.0
  Build date    : 20170802

 === Compiler Suite === 
  C compiler       : gnu[trunk
  C++ compiler     : gnu[trunk
  Fortran compiler : gnu7.0
  CFLAGS           :  -g -O2 -mtune=native -march=native
  CXXFLAGS         :  -g -O2 -mtune=native -march=native
  FCFLAGS          :  -g -ffree-line-length-none
  FC_LDFLAGS       : 

 === Optimizations === 
  Debug level        : basic
  Optimization level : standard
  Architecture       : intel_xeon

 === Multicore === 
  Parallel build : no
  Parallel I/O   : no
  openMP support : no
  GPU support    : no

 === Connectors / Fallbacks === 
  Connectors on : yes
  Fallbacks on  : yes
  DFT flavor    : none
  FFT flavor    : none
  LINALG flavor : netlib
  MATH flavor   : none
  TIMER flavor  : abinit
  TRIO flavor   : none

 === Experimental features === 
  Bindings            : @enable_bindings@
  Exports             : no
  GW double-precision : no

 ++++++++++++++++++++++++++++++++++++++++++++++++++++++++++++++++++++++++++++++


 ++++++++++++++++++++++++++++++++++++++++++++++++++++++++++++++++++++++++++++++
 Default optimizations:
   -O2 -mtune=native -march=native


 Optimizations for 20_datashare:
   -O0


 ++++++++++++++++++++++++++++++++++++++++++++++++++++++++++++++++++++++++++++++


 ++++++++++++++++++++++++++++++++++++++++++++++++++++++++++++++++++++++++++++++
 CPP options activated during the build:

                    CC_GNU                   CXX_GNU                    FC_GNU
 
 HAVE_FC_ALLOCATABLE_DT...             HAVE_FC_ASYNC         HAVE_FC_BACKTRACE
 
  HAVE_FC_COMMAND_ARGUMENT      HAVE_FC_COMMAND_LINE        HAVE_FC_CONTIGUOUS
 
           HAVE_FC_CPUTIME              HAVE_FC_EXIT             HAVE_FC_FLUSH
 
             HAVE_FC_GAMMA            HAVE_FC_GETENV   HAVE_FC_IEEE_EXCEPTIONS
 
          HAVE_FC_INT_QUAD             HAVE_FC_IOMSG     HAVE_FC_ISO_C_BINDING
 
  HAVE_FC_ISO_FORTRAN_2008        HAVE_FC_LONG_LINES        HAVE_FC_MOVE_ALLOC
 
           HAVE_FC_PRIVATE         HAVE_FC_PROTECTED         HAVE_FC_STREAM_IO
 
            HAVE_FC_SYSTEM          HAVE_FORTRAN2003        HAVE_LIBPAW_ABINIT
 
      HAVE_LIBTETRA_ABINIT               HAVE_LINALG        HAVE_LINALG_SERIAL
 
             HAVE_OS_LINUX         HAVE_TIMER_ABINIT              USE_MACROAVE
 
 ++++++++++++++++++++++++++++++++++++++++++++++++++++++++++++++++++++++++++++++

- input  file    -> graphene.in
- output file    -> graphene.out
- root for input  files -> graphene_xi
- root for output files -> graphene_xo

-instrng: 95 lines of input have been read from file graphene.in


 Please give name of formatted atomic psp file
 iofn2 : for atom type 1, psp file is ./6c.pspnc
  read the values zionpsp=  4.0 , pspcod=   1 , lmax=   1

 inpspheads: deduce mpsang = 2, n1xccc = 2501.
 invars1 : treat image number: 1

 symlatt : the Bravais lattice is hP (primitive hexagonal)
  xred   is defined in input file
 ingeo : takes atomic coordinates from input array xred
  symfind : exit, nsym=          24
    symrel matrices, symafm and tnons are :
   1       1   0   0     0   1   0     0   0   1       1      0.0000  0.0000  0.0000
   2      -1   0   0     0  -1   0     0   0  -1       1     -0.3333  0.3333  0.0000
   3       0   1   0     1   0   0     0   0   1       1     -0.3333  0.3333  0.0000
   4       0  -1   0    -1   0   0     0   0  -1       1      0.0000  0.0000  0.0000
   5       1   1   0    -1   0   0     0   0   1       1     -0.3333  0.3333  0.0000
   6      -1  -1   0     1   0   0     0   0  -1       1      0.0000  0.0000  0.0000
   7      -1   0   0     1   1   0     0   0   1       1      0.0000  0.0000  0.0000
   8       1   0   0    -1  -1   0     0   0  -1       1     -0.3333  0.3333  0.0000
   9       0   1   0    -1  -1   0     0   0   1       1      0.0000  0.0000  0.0000
  10       0  -1   0     1   1   0     0   0  -1       1     -0.3333  0.3333  0.0000
  11      -1  -1   0     0   1   0     0   0   1       1     -0.3333  0.3333  0.0000
  12       1   1   0     0  -1   0     0   0  -1       1      0.0000  0.0000  0.0000
  13      -1   0   0     0  -1   0     0   0   1       1     -0.3333  0.3333  0.0000
  14       1   0   0     0   1   0     0   0  -1       1      0.0000  0.0000  0.0000
  15       0  -1   0    -1   0   0     0   0   1       1      0.0000  0.0000  0.0000
  16       0   1   0     1   0   0     0   0  -1       1     -0.3333  0.3333  0.0000
  17      -1  -1   0     1   0   0     0   0   1       1      0.0000  0.0000  0.0000
  18       1   1   0    -1   0   0     0   0  -1       1     -0.3333  0.3333  0.0000
  19       1   0   0    -1  -1   0     0   0   1       1     -0.3333  0.3333  0.0000
  20      -1   0   0     1   1   0     0   0  -1       1      0.0000  0.0000  0.0000
  21       0  -1   0     1   1   0     0   0   1       1     -0.3333  0.3333  0.0000
  22       0   1   0    -1  -1   0     0   0  -1       1      0.0000  0.0000  0.0000
  23       1   1   0     0  -1   0     0   0   1       1      0.0000  0.0000  0.0000
  24      -1  -1   0     0   1   0     0   0  -1       1     -0.3333  0.3333  0.0000

 symlatt : the Bravais lattice is hP (primitive hexagonal)

 symlatt : the Bravais lattice is hP (primitive hexagonal)
 symspgr : spgroup= 191  P6/m m m   (=D6h^1)
 symspgr : optical characteristics = uniaxial
 Optical axis (in reduced coordinates, real space ) :   0   0   1
 ingeo : angdeg(1:3)=   90.00000000   90.00000000  120.00000000
 invars1 : treat image number: 1

 symlatt : the Bravais lattice is hP (primitive hexagonal)
  xred   is defined in input file
 ingeo : takes atomic coordinates from input array xred
  symfind : exit, nsym=          24
    symrel matrices, symafm and tnons are :
   1       1   0   0     0   1   0     0   0   1       1      0.0000  0.0000  0.0000
   2      -1   0   0     0  -1   0     0   0  -1       1     -0.3333  0.3333  0.0000
   3       0   1   0     1   0   0     0   0   1       1     -0.3333  0.3333  0.0000
   4       0  -1   0    -1   0   0     0   0  -1       1      0.0000  0.0000  0.0000
   5       1   1   0    -1   0   0     0   0   1       1     -0.3333  0.3333  0.0000
   6      -1  -1   0     1   0   0     0   0  -1       1      0.0000  0.0000  0.0000
   7      -1   0   0     1   1   0     0   0   1       1      0.0000  0.0000  0.0000
   8       1   0   0    -1  -1   0     0   0  -1       1     -0.3333  0.3333  0.0000
   9       0   1   0    -1  -1   0     0   0   1       1      0.0000  0.0000  0.0000
  10       0  -1   0     1   1   0     0   0  -1       1     -0.3333  0.3333  0.0000
  11      -1  -1   0     0   1   0     0   0   1       1     -0.3333  0.3333  0.0000
  12       1   1   0     0  -1   0     0   0  -1       1      0.0000  0.0000  0.0000
  13      -1   0   0     0  -1   0     0   0   1       1     -0.3333  0.3333  0.0000
  14       1   0   0     0   1   0     0   0  -1       1      0.0000  0.0000  0.0000
  15       0  -1   0    -1   0   0     0   0   1       1      0.0000  0.0000  0.0000
  16       0   1   0     1   0   0     0   0  -1       1     -0.3333  0.3333  0.0000
  17      -1  -1   0     1   0   0     0   0   1       1      0.0000  0.0000  0.0000
  18       1   1   0    -1   0   0     0   0  -1       1     -0.3333  0.3333  0.0000
  19       1   0   0    -1  -1   0     0   0   1       1     -0.3333  0.3333  0.0000
  20      -1   0   0     1   1   0     0   0  -1       1      0.0000  0.0000  0.0000
  21       0  -1   0     1   1   0     0   0   1       1     -0.3333  0.3333  0.0000
  22       0   1   0    -1  -1   0     0   0  -1       1      0.0000  0.0000  0.0000
  23       1   1   0     0  -1   0     0   0   1       1      0.0000  0.0000  0.0000
  24      -1  -1   0     0   1   0     0   0  -1       1     -0.3333  0.3333  0.0000

 symlatt : the Bravais lattice is hP (primitive hexagonal)

 symlatt : the Bravais lattice is hP (primitive hexagonal)
 symspgr : spgroup= 191  P6/m m m   (=D6h^1)
 symspgr : optical characteristics = uniaxial
 Optical axis (in reduced coordinates, real space ) :   0   0   1
 ingeo : angdeg(1:3)=   90.00000000   90.00000000  120.00000000
 invars2: take the default value of fband=  1.25000000E-01
 chkneu : initialized the occupation numbers for occopt=    1, spin-unpolarized or antiferromagnetic case :
  2.00  2.00  2.00  2.00  0.00
 chkneu : initialized the occupation numbers for occopt=    1, spin-unpolarized or antiferromagnetic case :
  2.00  2.00  2.00  2.00  0.00  0.00  0.00  0.00
mpi_setup: mkmem  undefined in the input file.Use default mkmem  = nkpt
 mpi_setup: With nkpt_me=8 and mkmem  = 8, ground state wf handled in core.
mpi_setup: mkqmem undefined in the input file.Use default mkqmem = nkpt
 mpi_setup: With nkpt_me=8 and mkqmem = 8, ground state wf handled in core.
mpi_setup: mk1mem undefined in the input file.Use default mk1mem = nkpt
 mpi_setup: With nkpt_me=8 and mk1mem = 8, ground state wf handled in core.
 For input ecut=  1.700000E+01 best grid ngfft=      18      18      72
       max ecut=  1.848384E+01

 ==== FFT mesh ====
  FFT mesh divisions ........................    18   18   72
  Augmented FFT divisions ...................    19   19   72
  FFT algorithm .............................   112
  FFT cache size ............................    16
 getmpw: optimal value of mpw= 1205
mpi_setup: mkmem  undefined in the input file.Use default mkmem  = nkpt
 mpi_setup: With nkpt_me=237 and mkmem  = 237, ground state wf handled in core.
mpi_setup: mkqmem undefined in the input file.Use default mkqmem = nkpt
 mpi_setup: With nkpt_me=237 and mkqmem = 237, ground state wf handled in core.
mpi_setup: mk1mem undefined in the input file.Use default mk1mem = nkpt
 mpi_setup: With nkpt_me=237 and mk1mem = 237, ground state wf handled in core.
 For input ecut=  1.700000E+01 best grid ngfft=      18      18      72
       max ecut=  1.848384E+01

 ==== FFT mesh ====
  FFT mesh divisions ........................    18   18   72
  Augmented FFT divisions ...................    19   19   72
  FFT algorithm .............................   112
  FFT cache size ............................    16
 getmpw: optimal value of mpw= 1205

 DATASET    1 : space group P6/m m m (#191); Bravais hP (primitive hexag.)

 getdim_nloc : deduce lmnmax  =   1, lnmax  =   1,
                      lmnmaxso=   1, lnmaxso=   1.
memory : analysis of memory needs
================================================================================
 Values of the parameters that define the memory need for DATASET  1.
     intxc =       0    ionmov =       0      iscf =       7    lmnmax =       1
     lnmax =       1     mgfft =      72  mpssoang =       2    mqgrid =    3453
     natom =       2  nloc_mem =       1    nspden =       1   nspinor =       1
    nsppol =       1      nsym =      24    n1xccc =    2501    ntypat =       1
    occopt =       1   xclevel =       1
-    mband =           5        mffmem =           1         mkmem =           8
       mpw =        1205          nfft =       23328          nkpt =           8
================================================================================
P This job should need less than                       8.073 Mbytes of memory.
  Rough estimation (10% accuracy) of disk space for files :
_ WF disk file :      0.737 Mbytes ; DEN or POT disk file :      0.180 Mbytes.
================================================================================

 Biggest array : f_fftgr(disk), with      2.8497 MBytes.
 memana : allocated an array of      2.850 Mbytes, for testing purposes.
 memana: allocated       8.073Mbytes, for testing purposes. 
 The job will continue.

 DATASET    2 : space group P6/m m m (#191); Bravais hP (primitive hexag.)

 getdim_nloc : deduce lmnmax  =   1, lnmax  =   1,
                      lmnmaxso=   1, lnmaxso=   1.
memory : analysis of memory needs
================================================================================
 Values of the parameters that define the memory need for DATASET  2.
     intxc =       0    ionmov =       0      iscf =      -2    lmnmax =       1
     lnmax =       1     mgfft =      72  mpssoang =       2    mqgrid =    3453
     natom =       2  nloc_mem =       1    nspden =       1   nspinor =       1
    nsppol =       1      nsym =      24    n1xccc =    2501    ntypat =       1
    occopt =       1   xclevel =       1
-    mband =           8        mffmem =           1         mkmem =         237
       mpw =        1205          nfft =       23328          nkpt =         237
================================================================================
P This job should need less than                      42.793 Mbytes of memory.
  Rough estimation (10% accuracy) of disk space for files :
_ WF disk file :     34.863 Mbytes ; DEN or POT disk file :      0.180 Mbytes.
================================================================================

 Biggest array : cg(disk), with     34.8635 MBytes.
 memana : allocated an array of     34.863 Mbytes, for testing purposes.
 memana: allocated      42.793Mbytes, for testing purposes. 
 The job will continue.
--------------------------------------------------------------------------------
------------- Echo of variables that govern the present computation ------------
--------------------------------------------------------------------------------
-
- outvars: echo of selected default values                                      
-   iomode0 =  0 , fftalg0 =112 , wfoptalg0 =  0
-
- outvars: echo of global parameters not present in the input file              
-  max_nthreads =    0
-
 -outvars: echo values of preprocessed input variables --------
            acell      4.6394279353E+00  4.6394279353E+00  1.8601215051E+01 Bohr
              amu      1.20110000E+01
           diemac      1.20000000E+01
             ecut      1.70000000E+01 Hartree
           enunit1          0
           enunit2          1
-          fftalg         112
           getden1          0
           getden2         -1
             iscf1          7
             iscf2         -2
           istwfk2       2    0    0    0    0    0    0    0    0    0
                         0    0    0    0    0    0    0    0    0    0
                         0    0    0    0    0    0    0    0    0    0
                         0    0    0    0    0    0    0    0    0    0
                         0    0    0    0    0    0    0    0    0    0
                       outvar_i_n : Printing only first  50 k-points.
           jdtset        1    2
              kpt1     0.00000000E+00  0.00000000E+00  1.25000000E-01
                       2.50000000E-01  0.00000000E+00  1.25000000E-01
                       5.00000000E-01  0.00000000E+00  1.25000000E-01
                       2.50000000E-01  2.50000000E-01  1.25000000E-01
                       0.00000000E+00  0.00000000E+00  3.75000000E-01
                       2.50000000E-01  0.00000000E+00  3.75000000E-01
                       5.00000000E-01  0.00000000E+00  3.75000000E-01
                       2.50000000E-01  2.50000000E-01  3.75000000E-01
              kpt2     0.00000000E+00  0.00000000E+00  0.00000000E+00
                       5.81395349E-03  0.00000000E+00  0.00000000E+00
                       1.16279070E-02  0.00000000E+00  0.00000000E+00
                       1.74418605E-02  0.00000000E+00  0.00000000E+00
                       2.32558140E-02  0.00000000E+00  0.00000000E+00
                       2.90697674E-02  0.00000000E+00  0.00000000E+00
                       3.48837209E-02  0.00000000E+00  0.00000000E+00
                       4.06976744E-02  0.00000000E+00  0.00000000E+00
                       4.65116279E-02  0.00000000E+00  0.00000000E+00
                       5.23255814E-02  0.00000000E+00  0.00000000E+00
                       5.81395349E-02  0.00000000E+00  0.00000000E+00
                       6.39534884E-02  0.00000000E+00  0.00000000E+00
                       6.97674419E-02  0.00000000E+00  0.00000000E+00
                       7.55813953E-02  0.00000000E+00  0.00000000E+00
                       8.13953488E-02  0.00000000E+00  0.00000000E+00
                       8.72093023E-02  0.00000000E+00  0.00000000E+00
                       9.30232558E-02  0.00000000E+00  0.00000000E+00
                       9.88372093E-02  0.00000000E+00  0.00000000E+00
                       1.04651163E-01  0.00000000E+00  0.00000000E+00
                       1.10465116E-01  0.00000000E+00  0.00000000E+00
                       1.16279070E-01  0.00000000E+00  0.00000000E+00
                       1.22093023E-01  0.00000000E+00  0.00000000E+00
                       1.27906977E-01  0.00000000E+00  0.00000000E+00
                       1.33720930E-01  0.00000000E+00  0.00000000E+00
                       1.39534884E-01  0.00000000E+00  0.00000000E+00
                       1.45348837E-01  0.00000000E+00  0.00000000E+00
                       1.51162791E-01  0.00000000E+00  0.00000000E+00
                       1.56976744E-01  0.00000000E+00  0.00000000E+00
                       1.62790698E-01  0.00000000E+00  0.00000000E+00
                       1.68604651E-01  0.00000000E+00  0.00000000E+00
                       1.74418605E-01  0.00000000E+00  0.00000000E+00
                       1.80232558E-01  0.00000000E+00  0.00000000E+00
                       1.86046512E-01  0.00000000E+00  0.00000000E+00
                       1.91860465E-01  0.00000000E+00  0.00000000E+00
                       1.97674419E-01  0.00000000E+00  0.00000000E+00
                       2.03488372E-01  0.00000000E+00  0.00000000E+00
                       2.09302326E-01  0.00000000E+00  0.00000000E+00
                       2.15116279E-01  0.00000000E+00  0.00000000E+00
                       2.20930233E-01  0.00000000E+00  0.00000000E+00
                       2.26744186E-01  0.00000000E+00  0.00000000E+00
                       2.32558140E-01  0.00000000E+00  0.00000000E+00
                       2.38372093E-01  0.00000000E+00  0.00000000E+00
                       2.44186047E-01  0.00000000E+00  0.00000000E+00
                       2.50000000E-01  0.00000000E+00  0.00000000E+00
                       2.55813953E-01  0.00000000E+00  0.00000000E+00
                       2.61627907E-01  0.00000000E+00  0.00000000E+00
                       2.67441860E-01  0.00000000E+00  0.00000000E+00
                       2.73255814E-01  0.00000000E+00  0.00000000E+00
                       2.79069767E-01  0.00000000E+00  0.00000000E+00
                       2.84883721E-01  0.00000000E+00  0.00000000E+00
                       outvar_i_n : Printing only first  50 k-points.
           kptopt1          1
           kptopt2         -3
         kptrlatt        4    0    0      0    4    0      0    0    4
          kptrlen1     1.85577117E+01
          kptrlen2     3.00000000E+01
P           mkmem1          8
P           mkmem2        237
            natom           2
            nband1          5
            nband2          8
           nbdbuf1          0
           nbdbuf2          2
           ndtset           2
            ngfft          18      18      72
             nkpt1          8
             nkpt2        237
            nstep          10
             nsym          24
           ntypat           1
              occ      2.000000  2.000000  2.000000  2.000000  0.000000
            rprim      1.0000000000E+00  0.0000000000E+00  0.0000000000E+00
                      -5.0000000000E-01  8.6602540378E-01  0.0000000000E+00
                       0.0000000000E+00  0.0000000000E+00  1.0000000000E+00
           shiftk1     0.00000000E+00  0.00000000E+00  5.00000000E-01
           shiftk2     5.00000000E-01  5.00000000E-01  5.00000000E-01
          spgroup         191
           symrel      1  0  0   0  1  0   0  0  1      -1  0  0   0 -1  0   0  0 -1
                       0  1  0   1  0  0   0  0  1       0 -1  0  -1  0  0   0  0 -1
                       1  1  0  -1  0  0   0  0  1      -1 -1  0   1  0  0   0  0 -1
                      -1  0  0   1  1  0   0  0  1       1  0  0  -1 -1  0   0  0 -1
                       0  1  0  -1 -1  0   0  0  1       0 -1  0   1  1  0   0  0 -1
                      -1 -1  0   0  1  0   0  0  1       1  1  0   0 -1  0   0  0 -1
                      -1  0  0   0 -1  0   0  0  1       1  0  0   0  1  0   0  0 -1
                       0 -1  0  -1  0  0   0  0  1       0  1  0   1  0  0   0  0 -1
                      -1 -1  0   1  0  0   0  0  1       1  1  0  -1  0  0   0  0 -1
                       1  0  0  -1 -1  0   0  0  1      -1  0  0   1  1  0   0  0 -1
                       0 -1  0   1  1  0   0  0  1       0  1  0  -1 -1  0   0  0 -1
                       1  1  0   0 -1  0   0  0  1      -1 -1  0   0  1  0   0  0 -1
            tnons      0.0000000  0.0000000  0.0000000    -0.3333333  0.3333333  0.0000000
                      -0.3333333  0.3333333  0.0000000     0.0000000  0.0000000  0.0000000
                      -0.3333333  0.3333333  0.0000000     0.0000000  0.0000000  0.0000000
                       0.0000000  0.0000000  0.0000000    -0.3333333  0.3333333  0.0000000
                       0.0000000  0.0000000  0.0000000    -0.3333333  0.3333333  0.0000000
                      -0.3333333  0.3333333  0.0000000     0.0000000  0.0000000  0.0000000
                      -0.3333333  0.3333333  0.0000000     0.0000000  0.0000000  0.0000000
                       0.0000000  0.0000000  0.0000000    -0.3333333  0.3333333  0.0000000
                       0.0000000  0.0000000  0.0000000    -0.3333333  0.3333333  0.0000000
                      -0.3333333  0.3333333  0.0000000     0.0000000  0.0000000  0.0000000
                      -0.3333333  0.3333333  0.0000000     0.0000000  0.0000000  0.0000000
                       0.0000000  0.0000000  0.0000000    -0.3333333  0.3333333  0.0000000
           toldfe1     1.00000000E-06 Hartree
           toldfe2     0.00000000E+00 Hartree
           tolwfr1     0.00000000E+00
           tolwfr2     1.00000000E-12
            typat      1  1
              wtk1       0.03125    0.18750    0.09375    0.18750    0.03125    0.18750
                         0.09375    0.18750
              wtk2       1.00000    1.00000    1.00000    1.00000    1.00000    1.00000
                         1.00000    1.00000    1.00000    1.00000    1.00000    1.00000
                         1.00000    1.00000    1.00000    1.00000    1.00000    1.00000
                         1.00000    1.00000    1.00000    1.00000    1.00000    1.00000
                         1.00000    1.00000    1.00000    1.00000    1.00000    1.00000
                         1.00000    1.00000    1.00000    1.00000    1.00000    1.00000
                         1.00000    1.00000    1.00000    1.00000    1.00000    1.00000
                         1.00000    1.00000    1.00000    1.00000    1.00000    1.00000
                         1.00000    1.00000
                       outvars : Printing only first  50 k-points.
           xangst      0.0000000000E+00  0.0000000000E+00  0.0000000000E+00
                       1.2275397621E+00  7.0872041210E-01  0.0000000000E+00
            xcart      0.0000000000E+00  0.0000000000E+00  0.0000000000E+00
                       2.3197139676E+00  1.3392874837E+00  0.0000000000E+00
             xred      0.0000000000E+00  0.0000000000E+00  0.0000000000E+00
                       6.6666666667E-01  3.3333333333E-01  0.0000000000E+00
            znucl        6.00000

================================================================================

 chkinp: Checking input parameters for consistency, jdtset=   1.

 chkinp: Checking input parameters for consistency, jdtset=   2.
 DATA TYPE INFORMATION: 
 REAL:      Data type name: REAL(DP) 
            Kind value:      8
            Precision:      15
            Smallest nonnegligible quantity relative to 1:  0.22204460E-15
            Smallest positive number:                       0.22250739-307
            Largest representable number:                   0.17976931+309
 INTEGER:   Data type name: INTEGER(default) 
            Kind value: 4
            Bit size:   32
            Largest representable number: 2147483647
 LOGICAL:   Data type name: LOGICAL 
            Kind value: 4
 CHARACTER: Data type name: CHARACTER             Kind value: 1

  ==== OpenMP parallelism is OFF ====
 
  MPI-IO support is OFF

================================================================================
== DATASET  1 ==================================================================
-   nproc =    1


 getdim_nloc : deduce lmnmax  =   1, lnmax  =   1,
                      lmnmaxso=   1, lnmaxso=   1.
 Exchange-correlation functional for the present dataset will be:
  LDA: new Teter (4/93) with spin-polarized option - ixc=1
 Citation for XC functional:
  S. Goedecker, M. Teter, J. Huetter, PRB 54, 1703 (1996)

 Unit cell volume ucvol=  3.4673750E+02 bohr^3
 Angles (23,13,12)=  9.00000000E+01  9.00000000E+01  1.20000000E+02 degrees

 getcut: wavevector=  0.0000  0.0000  0.0000  ngfft=  18  18  72
         ecut(hartree)=     17.000   => boxcut(ratio)=   2.08546
- pspini: atom type   1  psp file is ./6c.pspnc
- pspatm: opening atomic psp file    ./6c.pspnc
-  Troullier-Martins psp for element  C         Thu Oct 27 17:29:33 EDT 1994
-  6.00000   4.00000    940714                znucl, zion, pspdat
    1    1    1    1      2001   0.00000      pspcod,pspxc,lmax,lloc,mmax,r2well
    0  10.372  24.987    1   1.4850707        l,e99.0,e99.9,nproj,rcpsp
   0.00000000   0.00000000   0.00000000   0.00000000     rms, ekb1, ekb2, epsatm
    1  15.431  21.987    0   1.4850707        l,e99.0,e99.9,nproj,rcpsp
   0.00000000   0.00000000   0.00000000   0.00000000     rms, ekb1, ekb2, epsatm
    0.83985002509544    0.99012430797080    0.51184907750884   rchrg,fchrg,qchrg
 pspatm: epsatm=    0.92590353
         --- l  ekb(1:nproj) -->
             0    4.921466
 pspatm: atomic psp has been read  and splines computed

   1.48144565E+01                                ecore*ucvol(ha*bohr**3)
 ==== Info on pseudopotentials ====
  Norm-conserving pseudopotentials
  Number of pseudopotentials ..    1
  Number of types of atoms   ..    1
  Scalar calculation (no spin-orbit term)
  Nonlocal part applied using Legendre polynomials
  Max number of non-local projectors over l and type   1
  Highest angular momentum +1 .......   2
  Max number of (l,n)   components ..   1
  Max number of (l,m,n) components ..   1

 Pseudo-Core Charge Info: 
   Number of radial points for pseudo-core charge .. 2501
   XC core-correction treatment (optnlxccc) ........    1
   Radius for pseudo-core charge for each type ..... 

  - Atom type    1 has pseudo-core radius ..  2.5196

 Info on the Q-grid used for form factors in spline form: 
   Number of q-points for radial functions ffspl ..   3453
   Number of q-points for vlspl ...................   3453
   vloc is computed in Reciprocal Space
   model core charge treated in real-space

  XC functional for type 1 is 1
  Pseudo valence available: no

 wfconv:     5 bands initialized randomly with npw=  1205, for ikpt=     1
 wfconv:     5 bands initialized randomly with npw=  1166, for ikpt=     2
 wfconv:     5 bands initialized randomly with npw=  1156, for ikpt=     3
 wfconv:     5 bands initialized randomly with npw=  1162, for ikpt=     4
 wfconv:     5 bands initialized randomly with npw=  1186, for ikpt=     5
 wfconv:     5 bands initialized randomly with npw=  1161, for ikpt=     6
 wfconv:     5 bands initialized randomly with npw=  1154, for ikpt=     7
 wfconv:     5 bands initialized randomly with npw=  1154, for ikpt=     8
_setup2: Arith. and geom. avg. npw (full set) are    1161.844    1161.801
 initro: for itypat=  1, take decay length=      0.7000,
 initro: indeed, coreel=      2.0000, nval=  4 and densty=  0.0000E+00.

================================================================================

 getcut: wavevector=  0.0000  0.0000  0.0000  ngfft=  18  18  72
         ecut(hartree)=     17.000   => boxcut(ratio)=   2.08546

--- !WARNING
src_file: m_ewald.F90
src_line: 145
message: |
    Very large box of G neighbors in ewald: you probably do not want to do this.
     If you have a metal consider setting dipdip 0.  ng =         30
...


--- !WARNING
src_file: m_ewald.F90
src_line: 145
message: |
    Very large box of G neighbors in ewald: you probably do not want to do this.
     If you have a metal consider setting dipdip 0.  ng =         40
...


 ITER STEP NUMBER     1
 vtorho : nnsclo_now=2, note that nnsclo,dbl_nnsclo,istep=0 0 1
 non-scf iterations; kpt #     1  , k= (  0.00000  0.00000  0.12500  ), band residuals:
 res:  3.35E-01  2.93E-01  1.09E-01  1.37E-01  1.46E-01
 ene: -5.79E-01 -2.57E-01 -1.17E-01  1.10E-01  1.73E-01
 res:  1.09E-02  4.00E-03  2.90E-03  2.45E-02  1.87E-03
 ene: -7.82E-01 -3.28E-01 -2.00E-01 -1.97E-01  1.22E-01
 vtowfk : number of one-way 3D ffts skipped in vtowfk until now =1
     eigenvalues (hartree) for    5  bands
              after    3 non-SCF iterations with    4 CG line minimizations
 -7.8218E-01 -3.2816E-01 -2.0027E-01 -1.9705E-01  1.2239E-01
 non-scf iterations; kpt #     2  , k= (  0.25000  0.00000  0.12500  ), band residuals:
 res:  3.30E-01  2.20E-01  1.66E-01  4.22E-01  6.55E-02
 ene: -5.78E-01 -2.91E-01 -1.64E-01 -1.04E-01  2.52E-01
 res:  7.47E-03  3.80E-03  2.84E-03  5.87E-03  2.75E-03
 ene: -7.32E-01 -3.52E-01 -2.70E-01 -2.65E-01  1.96E-01
 vtowfk : number of one-way 3D ffts skipped in vtowfk until now =2
     eigenvalues (hartree) for    5  bands
              after    3 non-SCF iterations with    4 CG line minimizations
 -7.3150E-01 -3.5151E-01 -2.7000E-01 -2.6479E-01  1.9594E-01
 non-scf iterations; kpt #     3  , k= (  0.50000  0.00000  0.12500  ), band residuals:
 res:  3.07E-01  3.41E-01  1.94E-01  2.13E-01  1.99E-01
 ene: -4.99E-01 -4.11E-01 -1.71E-01 -4.71E-02  3.03E-01
 res:  4.72E-03  1.67E-02  6.33E-03  4.84E-03  2.68E-02
 ene: -5.92E-01 -5.57E-01 -3.18E-01 -1.37E-01  1.69E-02
 vtowfk : number of one-way 3D ffts skipped in vtowfk until now =3
     eigenvalues (hartree) for    5  bands
              after    3 non-SCF iterations with    4 CG line minimizations
 -5.9220E-01 -5.5698E-01 -3.1820E-01 -1.3711E-01  1.6869E-02
 non-scf iterations; kpt #     4  , k= (  0.25000  0.25000  0.12500  ), band residuals:
 res:  2.01E-01  2.51E-01  2.18E-01  1.80E-01  1.09E-01
 ene: -5.45E-01 -3.55E-01 -2.92E-01 -7.36E-02  3.04E-01
 res:  5.68E-03  7.61E-03  9.84E-03  9.15E-03  1.45E-02
 ene: -6.30E-01 -4.63E-01 -4.04E-01 -1.50E-01  5.33E-02
 vtowfk : number of one-way 3D ffts skipped in vtowfk until now =4
     eigenvalues (hartree) for    5  bands
              after    3 non-SCF iterations with    4 CG line minimizations
 -6.2970E-01 -4.6265E-01 -4.0418E-01 -1.4983E-01  5.3317E-02
 non-scf iterations; kpt #     5  , k= (  0.00000  0.00000  0.37500  ), band residuals:
 res:  2.21E-01  2.70E-01  9.48E-02  7.92E-02  1.59E-01
 ene: -6.91E-01 -2.50E-01 -1.17E-01  1.54E-01  2.11E-01
 res:  7.19E-03  3.53E-03  3.14E-03  2.17E-01  1.32E-02
 ene: -7.84E-01 -3.27E-01 -2.00E-01 -1.56E-01  1.37E-01
 vtowfk : number of one-way 3D ffts skipped in vtowfk until now =5
     eigenvalues (hartree) for    5  bands
              after    3 non-SCF iterations with    4 CG line minimizations
 -7.8439E-01 -3.2713E-01 -1.9964E-01 -1.5647E-01  1.3717E-01
 non-scf iterations; kpt #     6  , k= (  0.25000  0.00000  0.37500  ), band residuals:
 res:  3.67E-01  1.97E-01  2.04E-01  1.77E-01  1.56E-01
 ene: -5.84E-01 -2.82E-01 -1.75E-01  6.59E-02  3.27E-01
 res:  1.25E-02  2.41E-03  3.72E-03  1.74E-02  7.75E-03
 ene: -7.30E-01 -3.51E-01 -2.68E-01 -2.65E-01  2.08E-01
 vtowfk : number of one-way 3D ffts skipped in vtowfk until now =6
     eigenvalues (hartree) for    5  bands
              after    3 non-SCF iterations with    4 CG line minimizations
 -7.2958E-01 -3.5128E-01 -2.6850E-01 -2.6477E-01  2.0826E-01
 non-scf iterations; kpt #     7  , k= (  0.50000  0.00000  0.37500  ), band residuals:
 res:  2.25E-01  3.01E-01  1.98E-01  1.58E-01  2.08E-01
 ene: -4.98E-01 -4.09E-01 -2.40E-01 -2.84E-02  8.85E-02
 res:  3.33E-03  7.17E-03  2.03E-03  4.49E-03  4.88E-03
 ene: -5.96E-01 -5.59E-01 -3.18E-01 -1.38E-01  1.50E-02
 vtowfk : number of one-way 3D ffts skipped in vtowfk until now =7
     eigenvalues (hartree) for    5  bands
              after    3 non-SCF iterations with    4 CG line minimizations
 -5.9609E-01 -5.5875E-01 -3.1847E-01 -1.3780E-01  1.4987E-02
 non-scf iterations; kpt #     8  , k= (  0.25000  0.25000  0.37500  ), band residuals:
 res:  9.24E-02  1.93E-01  2.12E-01  1.95E-01  4.23E-02
 ene: -5.99E-01 -4.16E-01 -3.16E-01  2.81E-02  3.35E-01
 res:  2.89E-03  2.74E-03  6.29E-03  1.15E-02  3.89E-02
 ene: -6.30E-01 -4.63E-01 -4.05E-01 -1.50E-01  7.84E-02
 vtowfk : number of one-way 3D ffts skipped in vtowfk until now =8
     eigenvalues (hartree) for    5  bands
              after    3 non-SCF iterations with    4 CG line minimizations
 -6.3045E-01 -4.6288E-01 -4.0542E-01 -1.4968E-01  7.8450E-02
 Total charge density [el/Bohr^3]
      Maximum=    3.5808E-01  at reduced coord.    0.8889    0.7778    0.0000
      Minimum=    2.6278E-05  at reduced coord.    0.0000    0.0000    0.5000
   Integrated=    8.0000E+00
 ETOT  1  -12.013654124946    -1.201E+01 2.174E-01 5.537E+01
 scprqt: <Vxc>= -1.7427823E-01 hartree

Simple mixing update:
  residual square of the potential :   10.939910978728523
 scfcv: previous iteration took 00 [s]

 ITER STEP NUMBER     2
 vtorho : nnsclo_now=2, note that nnsclo,dbl_nnsclo,istep=0 0 2
 non-scf iterations; kpt #     1  , k= (  0.00000  0.00000  0.12500  ), band residuals:
 res:  3.59E-04  1.96E-05  4.90E-05  9.29E-05  1.30E-04
 ene: -7.67E-01 -3.31E-01 -1.57E-01 -1.57E-01  9.00E-02
 res:  1.18E-05  2.19E-07  4.00E-08  2.75E-07  8.65E-07
 ene: -7.67E-01 -3.31E-01 -1.57E-01 -1.57E-01  9.00E-02
 vtowfk : number of one-way 3D ffts skipped in vtowfk until now =9
     eigenvalues (hartree) for    5  bands
              after    3 non-SCF iterations with    4 CG line minimizations
 -7.6659E-01 -3.3074E-01 -1.5693E-01 -1.5693E-01  9.0031E-02
 non-scf iterations; kpt #     2  , k= (  0.25000  0.00000  0.12500  ), band residuals:
 res:  2.26E-04  1.54E-05  2.52E-05  3.16E-05  2.15E-04
 ene: -7.12E-01 -3.18E-01 -2.66E-01 -2.32E-01  1.64E-01
 res:  3.50E-06  4.42E-08  4.39E-07  6.25E-08  5.89E-06
 ene: -7.12E-01 -3.18E-01 -2.66E-01 -2.32E-01  1.64E-01
 vtowfk : number of one-way 3D ffts skipped in vtowfk until now =10
     eigenvalues (hartree) for    5  bands
              after    3 non-SCF iterations with    4 CG line minimizations
 -7.1213E-01 -3.1805E-01 -2.6603E-01 -2.3151E-01  1.6403E-01
 non-scf iterations; kpt #     3  , k= (  0.50000  0.00000  0.12500  ), band residuals:
 res:  4.06E-05  4.27E-05  5.14E-06  8.18E-06  6.68E-05
 ene: -5.69E-01 -5.37E-01 -2.82E-01 -1.34E-01  1.56E-02
 res:  1.79E-07  8.78E-08  4.22E-09  5.10E-09  4.74E-07
 ene: -5.69E-01 -5.37E-01 -2.82E-01 -1.34E-01  1.56E-02
 vtowfk : number of one-way 3D ffts skipped in vtowfk until now =11
     eigenvalues (hartree) for    5  bands
              after    3 non-SCF iterations with    4 CG line minimizations
 -5.6922E-01 -5.3681E-01 -2.8188E-01 -1.3370E-01  1.5574E-02
 non-scf iterations; kpt #     4  , k= (  0.25000  0.25000  0.12500  ), band residuals:
 res:  5.87E-05  1.73E-05  3.26E-05  9.17E-06  4.14E-05
 ene: -6.07E-01 -4.32E-01 -3.79E-01 -1.48E-01  5.93E-02
 res:  9.00E-08  1.48E-08  7.17E-09  1.23E-08  1.76E-07
 ene: -6.07E-01 -4.32E-01 -3.79E-01 -1.48E-01  5.93E-02
 vtowfk : number of one-way 3D ffts skipped in vtowfk until now =12
     eigenvalues (hartree) for    5  bands
              after    3 non-SCF iterations with    4 CG line minimizations
 -6.0721E-01 -4.3194E-01 -3.7926E-01 -1.4821E-01  5.9335E-02
 non-scf iterations; kpt #     5  , k= (  0.00000  0.00000  0.37500  ), band residuals:
 res:  4.95E-04  3.83E-05  5.04E-05  6.39E-04  2.51E-04
 ene: -7.67E-01 -3.30E-01 -1.57E-01 -1.56E-01  9.89E-02
 res:  1.94E-05  3.09E-07  8.12E-08  3.11E-06  2.13E-06
 ene: -7.67E-01 -3.30E-01 -1.57E-01 -1.57E-01  9.88E-02
 vtowfk : number of one-way 3D ffts skipped in vtowfk until now =13
     eigenvalues (hartree) for    5  bands
              after    3 non-SCF iterations with    4 CG line minimizations
 -7.6658E-01 -3.3010E-01 -1.5652E-01 -1.5652E-01  9.8840E-02
 non-scf iterations; kpt #     6  , k= (  0.25000  0.00000  0.37500  ), band residuals:
 res:  2.41E-04  1.16E-05  8.97E-05  6.36E-05  3.37E-04
 ene: -7.12E-01 -3.18E-01 -2.66E-01 -2.31E-01  1.72E-01
 res:  4.04E-06  2.82E-08  2.37E-07  1.19E-07  1.74E-05
 ene: -7.12E-01 -3.18E-01 -2.66E-01 -2.31E-01  1.72E-01
 vtowfk : number of one-way 3D ffts skipped in vtowfk until now =14
     eigenvalues (hartree) for    5  bands
              after    3 non-SCF iterations with    4 CG line minimizations
 -7.1214E-01 -3.1800E-01 -2.6597E-01 -2.3141E-01  1.7221E-01
 non-scf iterations; kpt #     7  , k= (  0.50000  0.00000  0.37500  ), band residuals:
 res:  2.04E-05  1.55E-05  2.51E-06  3.08E-06  2.69E-05
 ene: -5.69E-01 -5.37E-01 -2.82E-01 -1.33E-01  1.53E-02
 res:  1.37E-07  6.26E-08  4.20E-09  6.96E-09  4.85E-07
 ene: -5.69E-01 -5.37E-01 -2.82E-01 -1.33E-01  1.53E-02
 vtowfk : number of one-way 3D ffts skipped in vtowfk until now =15
     eigenvalues (hartree) for    5  bands
              after    3 non-SCF iterations with    4 CG line minimizations
 -5.6922E-01 -5.3681E-01 -2.8182E-01 -1.3349E-01  1.5283E-02
 non-scf iterations; kpt #     8  , k= (  0.25000  0.25000  0.37500  ), band residuals:
 res:  5.02E-05  1.39E-05  2.99E-05  1.11E-05  3.14E-04
 ene: -6.07E-01 -4.32E-01 -3.79E-01 -1.48E-01  5.94E-02
 res:  6.29E-08  1.55E-08  6.29E-09  3.18E-08  1.01E-06
 ene: -6.07E-01 -4.32E-01 -3.79E-01 -1.48E-01  5.93E-02
 vtowfk : number of one-way 3D ffts skipped in vtowfk until now =16
     eigenvalues (hartree) for    5  bands
              after    3 non-SCF iterations with    4 CG line minimizations
 -6.0715E-01 -4.3188E-01 -3.7908E-01 -1.4800E-01  5.9338E-02
 Total charge density [el/Bohr^3]
      Maximum=    3.3953E-01  at reduced coord.    0.8889    0.7778    0.0000
      Minimum=    3.1048E-07  at reduced coord.    0.5000    0.0000    0.4861
   Integrated=    8.0000E+00
 ETOT  2  -12.036027699422    -2.237E-02 1.940E-05 4.270E+00
 scprqt: <Vxc>= -1.6521881E-01 hartree

 Pulay update with  1 previous iterations:
 mixing of old trial potential : alpha(m:m-4)=   1.02     -0.174E-01
 scfcv: previous iteration took 00 [s]

 ITER STEP NUMBER     3
 vtorho : nnsclo_now=1, note that nnsclo,dbl_nnsclo,istep=0 0 3
 non-scf iterations; kpt #     1  , k= (  0.00000  0.00000  0.12500  ), band residuals:
 res:  1.52E-06  1.50E-07  4.09E-08  4.37E-08  4.46E-07
 ene: -7.52E-01 -3.16E-01 -1.44E-01 -1.44E-01  9.64E-02
 vtowfk : number of one-way 3D ffts skipped in vtowfk until now =17
     eigenvalues (hartree) for    5  bands
              after    2 non-SCF iterations with    4 CG line minimizations
 -7.5154E-01 -3.1641E-01 -1.4367E-01 -1.4367E-01  9.6378E-02
 non-scf iterations; kpt #     2  , k= (  0.25000  0.00000  0.12500  ), band residuals:
 res:  5.08E-07  8.11E-08  1.23E-07  5.23E-08  3.90E-06
 ene: -6.97E-01 -3.04E-01 -2.52E-01 -2.18E-01  1.70E-01
 vtowfk : number of one-way 3D ffts skipped in vtowfk until now =18
     eigenvalues (hartree) for    5  bands
              after    2 non-SCF iterations with    4 CG line minimizations
 -6.9716E-01 -3.0401E-01 -2.5169E-01 -2.1779E-01  1.7038E-01
 non-scf iterations; kpt #     3  , k= (  0.50000  0.00000  0.12500  ), band residuals:
 res:  1.03E-07  5.96E-08  8.00E-08  1.04E-07  5.17E-08
 ene: -5.55E-01 -5.22E-01 -2.68E-01 -1.19E-01  2.96E-02
 vtowfk : number of one-way 3D ffts skipped in vtowfk until now =19
     eigenvalues (hartree) for    5  bands
              after    2 non-SCF iterations with    4 CG line minimizations
 -5.5469E-01 -5.2200E-01 -2.6796E-01 -1.1928E-01  2.9615E-02
 non-scf iterations; kpt #     4  , k= (  0.25000  0.25000  0.12500  ), band residuals:
 res:  1.88E-07  4.41E-08  9.07E-08  8.85E-08  8.06E-08
 ene: -5.92E-01 -4.18E-01 -3.65E-01 -1.34E-01  7.36E-02
 vtowfk : number of one-way 3D ffts skipped in vtowfk until now =20
     eigenvalues (hartree) for    5  bands
              after    2 non-SCF iterations with    4 CG line minimizations
 -5.9247E-01 -4.1771E-01 -3.6472E-01 -1.3385E-01  7.3564E-02
 non-scf iterations; kpt #     5  , k= (  0.00000  0.00000  0.37500  ), band residuals:
 res:  2.00E-06  2.44E-07  4.09E-08  3.93E-08  1.12E-06
 ene: -7.52E-01 -3.16E-01 -1.43E-01 -1.43E-01  1.05E-01
 vtowfk : number of one-way 3D ffts skipped in vtowfk until now =21
     eigenvalues (hartree) for    5  bands
              after    2 non-SCF iterations with    4 CG line minimizations
 -7.5153E-01 -3.1577E-01 -1.4325E-01 -1.4325E-01  1.0468E-01
 non-scf iterations; kpt #     6  , k= (  0.25000  0.00000  0.37500  ), band residuals:
 res:  5.69E-07  8.00E-08  2.01E-07  5.16E-08  3.63E-06
 ene: -6.97E-01 -3.04E-01 -2.52E-01 -2.18E-01  1.78E-01
 vtowfk : number of one-way 3D ffts skipped in vtowfk until now =22
     eigenvalues (hartree) for    5  bands
              after    2 non-SCF iterations with    4 CG line minimizations
 -6.9718E-01 -3.0396E-01 -2.5163E-01 -2.1769E-01  1.7809E-01
 non-scf iterations; kpt #     7  , k= (  0.50000  0.00000  0.37500  ), band residuals:
 res:  9.24E-08  6.04E-08  7.99E-08  9.95E-08  5.01E-08
 ene: -5.55E-01 -5.22E-01 -2.68E-01 -1.19E-01  2.93E-02
 vtowfk : number of one-way 3D ffts skipped in vtowfk until now =23
     eigenvalues (hartree) for    5  bands
              after    2 non-SCF iterations with    4 CG line minimizations
 -5.5470E-01 -5.2200E-01 -2.6790E-01 -1.1907E-01  2.9321E-02
 non-scf iterations; kpt #     8  , k= (  0.25000  0.25000  0.37500  ), band residuals:
 res:  1.73E-07  4.41E-08  9.16E-08  8.18E-08  2.25E-08
 ene: -5.92E-01 -4.18E-01 -3.65E-01 -1.34E-01  7.36E-02
 vtowfk : number of one-way 3D ffts skipped in vtowfk until now =24
     eigenvalues (hartree) for    5  bands
              after    2 non-SCF iterations with    4 CG line minimizations
 -5.9241E-01 -4.1765E-01 -3.6455E-01 -1.3364E-01  7.3567E-02
 Total charge density [el/Bohr^3]
      Maximum=    3.4090E-01  at reduced coord.    0.8889    0.7778    0.0000
      Minimum=    3.1397E-07  at reduced coord.    0.5000    0.0000    0.4861
   Integrated=    8.0000E+00
 ETOT  3  -12.036146073461    -1.184E-04 3.898E-06 1.464E+00
 scprqt: <Vxc>= -1.6576089E-01 hartree

 Pulay update with  2 previous iterations:
 mixing of old trial potential : alpha(m:m-4)=   1.82     -0.749     -0.696E-01
 scfcv: previous iteration took 00 [s]

 ITER STEP NUMBER     4
 vtorho : nnsclo_now=1, note that nnsclo,dbl_nnsclo,istep=0 0 4
 non-scf iterations; kpt #     1  , k= (  0.00000  0.00000  0.12500  ), band residuals:
 res:  1.45E-06  1.96E-07  1.06E-09  2.12E-09  1.52E-06
 ene: -7.44E-01 -3.11E-01 -1.36E-01 -1.36E-01  9.27E-02
 vtowfk : number of one-way 3D ffts skipped in vtowfk until now =25
     eigenvalues (hartree) for    5  bands
              after    2 non-SCF iterations with    4 CG line minimizations
 -7.4382E-01 -3.1058E-01 -1.3550E-01 -1.3550E-01  9.2732E-02
 non-scf iterations; kpt #     2  , k= (  0.25000  0.00000  0.12500  ), band residuals:
 res:  1.23E-06  3.41E-09  1.54E-07  2.49E-09  4.07E-06
 ene: -6.89E-01 -2.96E-01 -2.46E-01 -2.10E-01  1.67E-01
 vtowfk : number of one-way 3D ffts skipped in vtowfk until now =26
     eigenvalues (hartree) for    5  bands
              after    2 non-SCF iterations with    4 CG line minimizations
 -6.8941E-01 -2.9598E-01 -2.4575E-01 -2.0965E-01  1.6676E-01
 non-scf iterations; kpt #     3  , k= (  0.50000  0.00000  0.12500  ), band residuals:
 res:  1.01E-08  2.61E-08  2.21E-09  3.02E-08  1.38E-07
 ene: -5.47E-01 -5.14E-01 -2.60E-01 -1.13E-01  3.55E-02
 vtowfk : number of one-way 3D ffts skipped in vtowfk until now =27
     eigenvalues (hartree) for    5  bands
              after    2 non-SCF iterations with    4 CG line minimizations
 -5.4686E-01 -5.1410E-01 -2.5983E-01 -1.1287E-01  3.5538E-02
 non-scf iterations; kpt #     4  , k= (  0.25000  0.25000  0.12500  ), band residuals:
 res:  1.01E-08  6.65E-09  1.72E-08  5.71E-08  1.68E-08
 ene: -5.85E-01 -4.10E-01 -3.57E-01 -1.28E-01  8.02E-02
 vtowfk : number of one-way 3D ffts skipped in vtowfk until now =28
     eigenvalues (hartree) for    5  bands
              after    2 non-SCF iterations with    4 CG line minimizations
 -5.8464E-01 -4.0976E-01 -3.5671E-01 -1.2763E-01  8.0177E-02
 non-scf iterations; kpt #     5  , k= (  0.00000  0.00000  0.37500  ), band residuals:
 res:  1.84E-06  2.93E-07  1.26E-09  1.43E-09  2.39E-06
 ene: -7.44E-01 -3.10E-01 -1.35E-01 -1.35E-01  1.00E-01
 vtowfk : number of one-way 3D ffts skipped in vtowfk until now =29
     eigenvalues (hartree) for    5  bands
              after    2 non-SCF iterations with    4 CG line minimizations
 -7.4381E-01 -3.0994E-01 -1.3509E-01 -1.3509E-01  1.0049E-01
 non-scf iterations; kpt #     6  , k= (  0.25000  0.00000  0.37500  ), band residuals:
 res:  1.41E-06  3.49E-09  2.27E-07  2.48E-09  6.27E-06
 ene: -6.89E-01 -2.96E-01 -2.46E-01 -2.10E-01  1.74E-01
 vtowfk : number of one-way 3D ffts skipped in vtowfk until now =30
     eigenvalues (hartree) for    5  bands
              after    2 non-SCF iterations with    4 CG line minimizations
 -6.8943E-01 -2.9593E-01 -2.4569E-01 -2.0954E-01  1.7398E-01
 non-scf iterations; kpt #     7  , k= (  0.50000  0.00000  0.37500  ), band residuals:
 res:  9.65E-09  2.57E-08  2.21E-09  2.75E-08  1.47E-07
 ene: -5.47E-01 -5.14E-01 -2.60E-01 -1.13E-01  3.52E-02
 vtowfk : number of one-way 3D ffts skipped in vtowfk until now =31
     eigenvalues (hartree) for    5  bands
              after    2 non-SCF iterations with    4 CG line minimizations
 -5.4687E-01 -5.1410E-01 -2.5977E-01 -1.1267E-01  3.5247E-02
 non-scf iterations; kpt #     8  , k= (  0.25000  0.25000  0.37500  ), band residuals:
 res:  9.86E-09  6.47E-09  1.73E-08  5.18E-08  1.90E-08
 ene: -5.85E-01 -4.10E-01 -3.57E-01 -1.27E-01  8.02E-02
 vtowfk : number of one-way 3D ffts skipped in vtowfk until now =32
     eigenvalues (hartree) for    5  bands
              after    2 non-SCF iterations with    4 CG line minimizations
 -5.8458E-01 -4.0970E-01 -3.5653E-01 -1.2741E-01  8.0181E-02
 Total charge density [el/Bohr^3]
      Maximum=    3.4059E-01  at reduced coord.    0.8889    0.7778    0.0000
      Minimum=    3.1882E-07  at reduced coord.    0.5000    0.0000    0.4861
   Integrated=    8.0000E+00
 ETOT  4  -12.036211328694    -6.526E-05 6.273E-06 4.397E-02
 scprqt: <Vxc>= -1.6658014E-01 hartree

 Pulay update with  3 previous iterations:
 mixing of old trial potential : alpha(m:m-4)=   1.38     -0.639      0.233      0.291E-01
 scfcv: previous iteration took 00 [s]

 ITER STEP NUMBER     5
 vtorho : nnsclo_now=1, note that nnsclo,dbl_nnsclo,istep=0 0 5
 non-scf iterations; kpt #     1  , k= (  0.00000  0.00000  0.12500  ), band residuals:
 res:  2.85E-08  4.09E-10  3.81E-11  1.13E-10  2.00E-08
 ene: -7.44E-01 -3.11E-01 -1.36E-01 -1.36E-01  9.16E-02
 vtowfk : number of one-way 3D ffts skipped in vtowfk until now =33
     eigenvalues (hartree) for    5  bands
              after    2 non-SCF iterations with    4 CG line minimizations
 -7.4438E-01 -3.1110E-01 -1.3616E-01 -1.3616E-01  9.1639E-02
 non-scf iterations; kpt #     2  , k= (  0.25000  0.00000  0.12500  ), band residuals:
 res:  2.51E-09  8.54E-10  2.83E-10  1.22E-10  1.79E-07
 ene: -6.90E-01 -2.97E-01 -2.46E-01 -2.10E-01  1.66E-01
 vtowfk : number of one-way 3D ffts skipped in vtowfk until now =34
     eigenvalues (hartree) for    5  bands
              after    2 non-SCF iterations with    4 CG line minimizations
 -6.8997E-01 -2.9660E-01 -2.4627E-01 -2.1028E-01  1.6567E-01
 non-scf iterations; kpt #     3  , k= (  0.50000  0.00000  0.12500  ), band residuals:
 res:  5.65E-11  1.39E-09  7.12E-11  7.97E-11  3.27E-10
 ene: -5.47E-01 -5.15E-01 -2.60E-01 -1.13E-01  3.50E-02
 vtowfk : number of one-way 3D ffts skipped in vtowfk until now =35
     eigenvalues (hartree) for    5  bands
              after    2 non-SCF iterations with    4 CG line minimizations
 -5.4748E-01 -5.1465E-01 -2.6045E-01 -1.1344E-01  3.5019E-02
 non-scf iterations; kpt #     4  , k= (  0.25000  0.25000  0.12500  ), band residuals:
 res:  2.14E-09  2.27E-10  2.17E-09  1.96E-10  1.13E-10
 ene: -5.85E-01 -4.10E-01 -3.57E-01 -1.28E-01  7.96E-02
 vtowfk : number of one-way 3D ffts skipped in vtowfk until now =36
     eigenvalues (hartree) for    5  bands
              after    2 non-SCF iterations with    4 CG line minimizations
 -5.8522E-01 -4.1038E-01 -3.5727E-01 -1.2818E-01  7.9605E-02
 non-scf iterations; kpt #     5  , k= (  0.00000  0.00000  0.37500  ), band residuals:
 res:  2.81E-08  7.20E-10  3.55E-11  7.85E-11  1.62E-08
 ene: -7.44E-01 -3.10E-01 -1.36E-01 -1.36E-01  9.93E-02
 vtowfk : number of one-way 3D ffts skipped in vtowfk until now =37
     eigenvalues (hartree) for    5  bands
              after    2 non-SCF iterations with    4 CG line minimizations
 -7.4437E-01 -3.1046E-01 -1.3574E-01 -1.3574E-01  9.9335E-02
 non-scf iterations; kpt #     6  , k= (  0.25000  0.00000  0.37500  ), band residuals:
 res:  3.44E-09  8.57E-10  7.12E-10  1.22E-10  9.12E-07
 ene: -6.90E-01 -2.97E-01 -2.46E-01 -2.10E-01  1.73E-01
 vtowfk : number of one-way 3D ffts skipped in vtowfk until now =38
     eigenvalues (hartree) for    5  bands
              after    2 non-SCF iterations with    4 CG line minimizations
 -6.8999E-01 -2.9655E-01 -2.4621E-01 -2.1018E-01  1.7284E-01
 non-scf iterations; kpt #     7  , k= (  0.50000  0.00000  0.37500  ), band residuals:
 res:  6.83E-11  1.26E-09  7.05E-11  8.60E-11  3.21E-10
 ene: -5.47E-01 -5.15E-01 -2.60E-01 -1.13E-01  3.47E-02
 vtowfk : number of one-way 3D ffts skipped in vtowfk until now =39
     eigenvalues (hartree) for    5  bands
              after    2 non-SCF iterations with    4 CG line minimizations
 -5.4749E-01 -5.1465E-01 -2.6039E-01 -1.1323E-01  3.4729E-02
 non-scf iterations; kpt #     8  , k= (  0.25000  0.25000  0.37500  ), band residuals:
 res:  2.15E-09  2.27E-10  2.18E-09  1.63E-10  5.67E-11
 ene: -5.85E-01 -4.10E-01 -3.57E-01 -1.28E-01  7.96E-02
 vtowfk : number of one-way 3D ffts skipped in vtowfk until now =40
     eigenvalues (hartree) for    5  bands
              after    2 non-SCF iterations with    4 CG line minimizations
 -5.8516E-01 -4.1032E-01 -3.5709E-01 -1.2796E-01  7.9609E-02
 Total charge density [el/Bohr^3]
      Maximum=    3.4065E-01  at reduced coord.    0.8889    0.7778    0.0000
      Minimum=    3.1793E-07  at reduced coord.    0.5000    0.0000    0.4861
   Integrated=    8.0000E+00
 ETOT  5  -12.036211587305    -2.586E-07 9.121E-07 5.697E-03
 scprqt: <Vxc>= -1.6660616E-01 hartree

 Pulay update with  4 previous iterations:
 mixing of old trial potential : alpha(m:m-4)=   1.42     -0.451      0.763E-01 -0.377E-01 -0.596E-02
 scfcv: previous iteration took 00 [s]

 ITER STEP NUMBER     6
 vtorho : nnsclo_now=1, note that nnsclo,dbl_nnsclo,istep=0 0 6
 non-scf iterations; kpt #     1  , k= (  0.00000  0.00000  0.12500  ), band residuals:
 res:  4.53E-09  2.19E-10  3.80E-12  3.50E-12  3.19E-09
 ene: -7.44E-01 -3.11E-01 -1.36E-01 -1.36E-01  9.14E-02
 vtowfk : number of one-way 3D ffts skipped in vtowfk until now =41
     eigenvalues (hartree) for    5  bands
              after    2 non-SCF iterations with    4 CG line minimizations
 -7.4408E-01 -3.1089E-01 -1.3584E-01 -1.3584E-01  9.1437E-02
 non-scf iterations; kpt #     2  , k= (  0.25000  0.00000  0.12500  ), band residuals:
 res:  2.02E-09  9.46E-12  1.84E-10  6.66E-12  2.68E-08
 ene: -6.90E-01 -2.96E-01 -2.46E-01 -2.10E-01  1.65E-01
 vtowfk : number of one-way 3D ffts skipped in vtowfk until now =42
     eigenvalues (hartree) for    5  bands
              after    2 non-SCF iterations with    4 CG line minimizations
 -6.8968E-01 -2.9629E-01 -2.4605E-01 -2.0996E-01  1.6547E-01
 non-scf iterations; kpt #     3  , k= (  0.50000  0.00000  0.12500  ), band residuals:
 res:  4.06E-11  2.92E-11  4.06E-12  3.32E-11  1.61E-10
 ene: -5.47E-01 -5.14E-01 -2.60E-01 -1.13E-01  3.52E-02
 vtowfk : number of one-way 3D ffts skipped in vtowfk until now =43
     eigenvalues (hartree) for    5  bands
              after    2 non-SCF iterations with    4 CG line minimizations
 -5.4718E-01 -5.1435E-01 -2.6014E-01 -1.1321E-01  3.5237E-02
 non-scf iterations; kpt #     4  , k= (  0.25000  0.25000  0.12500  ), band residuals:
 res:  4.13E-11  1.78E-11  8.70E-12  6.24E-11  1.82E-11
 ene: -5.85E-01 -4.10E-01 -3.57E-01 -1.28E-01  7.98E-02
 vtowfk : number of one-way 3D ffts skipped in vtowfk until now =44
     eigenvalues (hartree) for    5  bands
              after    2 non-SCF iterations with    4 CG line minimizations
 -5.8493E-01 -4.1008E-01 -3.5696E-01 -1.2795E-01  7.9845E-02
 non-scf iterations; kpt #     5  , k= (  0.00000  0.00000  0.37500  ), band residuals:
 res:  5.17E-09  4.01E-10  3.34E-12  3.33E-12  6.23E-09
 ene: -7.44E-01 -3.10E-01 -1.35E-01 -1.35E-01  9.91E-02
 vtowfk : number of one-way 3D ffts skipped in vtowfk until now =45
     eigenvalues (hartree) for    5  bands
              after    2 non-SCF iterations with    4 CG line minimizations
 -7.4407E-01 -3.1025E-01 -1.3542E-01 -1.3542E-01  9.9093E-02
 non-scf iterations; kpt #     6  , k= (  0.25000  0.00000  0.37500  ), band residuals:
 res:  2.35E-09  9.91E-12  3.20E-10  6.82E-12  4.98E-08
 ene: -6.90E-01 -2.96E-01 -2.46E-01 -2.10E-01  1.73E-01
 vtowfk : number of one-way 3D ffts skipped in vtowfk until now =46
     eigenvalues (hartree) for    5  bands
              after    2 non-SCF iterations with    4 CG line minimizations
 -6.8969E-01 -2.9624E-01 -2.4599E-01 -2.0986E-01  1.7260E-01
 non-scf iterations; kpt #     7  , k= (  0.50000  0.00000  0.37500  ), band residuals:
 res:  3.97E-11  2.66E-11  4.05E-12  2.65E-11  1.51E-10
 ene: -5.47E-01 -5.14E-01 -2.60E-01 -1.13E-01  3.49E-02
 vtowfk : number of one-way 3D ffts skipped in vtowfk until now =47
     eigenvalues (hartree) for    5  bands
              after    2 non-SCF iterations with    4 CG line minimizations
 -5.4719E-01 -5.1435E-01 -2.6008E-01 -1.1300E-01  3.4947E-02
 non-scf iterations; kpt #     8  , k= (  0.25000  0.25000  0.37500  ), band residuals:
 res:  4.17E-11  1.78E-11  4.40E-11  5.14E-11  1.96E-11
 ene: -5.85E-01 -4.10E-01 -3.57E-01 -1.28E-01  7.98E-02
 vtowfk : number of one-way 3D ffts skipped in vtowfk until now =48
     eigenvalues (hartree) for    5  bands
              after    2 non-SCF iterations with    4 CG line minimizations
 -5.8487E-01 -4.1002E-01 -3.5678E-01 -1.2774E-01  7.9849E-02
 Total charge density [el/Bohr^3]
      Maximum=    3.4063E-01  at reduced coord.    0.8889    0.7778    0.0000
      Minimum=    3.1797E-07  at reduced coord.    0.5000    0.0000    0.4861
   Integrated=    8.0000E+00
 ETOT  6  -12.036211618292    -3.099E-08 4.982E-08 1.042E-03
 scprqt: <Vxc>= -1.6664079E-01 hartree

 At SCF step    6, etot is converged : 
  for the second time, diff in etot=  3.099E-08 < toldfe=  1.000E-06

 Cartesian components of stress tensor (hartree/bohr^3)
  sigma(1 1)=  4.03958638E-04  sigma(3 2)=  0.00000000E+00
  sigma(2 2)=  4.03958638E-04  sigma(3 1)=  0.00000000E+00
  sigma(3 3)=  3.56898886E-04  sigma(2 1)=  0.00000000E+00

 fftdatar_write: About to write data to: graphene_xo_DS1_DEN with iomode IO_MODE_FORTRAN
 IO operation completed. cpu_time:       0.0 [s], walltime:       0.0 [s]
================================================================================

 ----iterations are completed or convergence reached----


 === Gap info ===
  >>>> For spin  1
   Minimum optical gap =   4.0259 [eV], located at k-point      :   0.5000  0.0000  0.3750
   Fundamental gap     =   4.0259 [eV], Top of valence bands at :   0.5000  0.0000  0.3750
                                        Bottom of conduction at :   0.5000  0.0000  0.3750
 Mean square residual over all n,k,spin=   2.5526E-09; max=  4.9822E-08
   0.0000  0.0000  0.1250    1  4.53158E-09 kpt; spin; max resid(k); each band:
  4.53E-09 2.19E-10 3.80E-12 3.50E-12 3.19E-09
   0.2500  0.0000  0.1250    1  2.67862E-08 kpt; spin; max resid(k); each band:
  2.02E-09 9.46E-12 1.84E-10 6.66E-12 2.68E-08
   0.5000  0.0000  0.1250    1  1.61235E-10 kpt; spin; max resid(k); each band:
  4.06E-11 2.92E-11 4.06E-12 3.32E-11 1.61E-10
   0.2500  0.2500  0.1250    1  6.23772E-11 kpt; spin; max resid(k); each band:
  4.13E-11 1.78E-11 8.70E-12 6.24E-11 1.82E-11
   0.0000  0.0000  0.3750    1  6.22748E-09 kpt; spin; max resid(k); each band:
  5.17E-09 4.01E-10 3.34E-12 3.33E-12 6.23E-09
   0.2500  0.0000  0.3750    1  4.98225E-08 kpt; spin; max resid(k); each band:
  2.35E-09 9.91E-12 3.20E-10 6.82E-12 4.98E-08
   0.5000  0.0000  0.3750    1  1.50915E-10 kpt; spin; max resid(k); each band:
  3.97E-11 2.66E-11 4.05E-12 2.65E-11 1.51E-10
   0.2500  0.2500  0.3750    1  5.14074E-11 kpt; spin; max resid(k); each band:
  4.17E-11 1.78E-11 4.40E-11 5.14E-11 1.96E-11

 outwf: write wavefunction to file graphene_xo_DS1_WFK, with iomode -1
 outwf with iomode: -1, cpu_time:     0.06[s], walltime:     0.02 [s]
 prteigrs : about to open file graphene_xo_DS1_EIG
 Fermi (or HOMO) energy (hartree) =  -0.11300   Average Vxc (hartree)=  -0.16664
 Eigenvalues (hartree) for nkpt=   8  k points:
 kpt#   1, nband=  5, wtk=  0.03125, kpt=  0.0000  0.0000  0.1250 (reduced coord)
  -0.74408   -0.31089   -0.13584   -0.13584    0.09144
 kpt#   2, nband=  5, wtk=  0.18750, kpt=  0.2500  0.0000  0.1250 (reduced coord)
  -0.68968   -0.29629   -0.24605   -0.20996    0.16547
 kpt#   3, nband=  5, wtk=  0.09375, kpt=  0.5000  0.0000  0.1250 (reduced coord)
  -0.54718   -0.51435   -0.26014   -0.11321    0.03524
 kpt#   4, nband=  5, wtk=  0.18750, kpt=  0.2500  0.2500  0.1250 (reduced coord)
  -0.58493   -0.41008   -0.35696   -0.12795    0.07985
 kpt#   5, nband=  5, wtk=  0.03125, kpt=  0.0000  0.0000  0.3750 (reduced coord)
  -0.74407   -0.31025   -0.13542   -0.13542    0.09909
 kpt#   6, nband=  5, wtk=  0.18750, kpt=  0.2500  0.0000  0.3750 (reduced coord)
  -0.68969   -0.29624   -0.24599   -0.20986    0.17260
 kpt#   7, nband=  5, wtk=  0.09375, kpt=  0.5000  0.0000  0.3750 (reduced coord)
  -0.54719   -0.51435   -0.26008   -0.11300    0.03495
 kpt#   8, nband=  5, wtk=  0.18750, kpt=  0.2500  0.2500  0.3750 (reduced coord)
  -0.58487   -0.41002   -0.35678   -0.12774    0.07985
 Total charge density [el/Bohr^3]
      Maximum=    3.4063E-01  at reduced coord.    0.8889    0.7778    0.0000
 Next maximum=    3.4063E-01  at reduced coord.    0.7778    0.5556    0.0000
      Minimum=    3.1797E-07  at reduced coord.    0.5000    0.0000    0.4861
 Next minimum=    3.1797E-07  at reduced coord.    0.1667    0.3333    0.4861
   Integrated=    8.0000E+00

 Cartesian components of stress tensor (hartree/bohr^3)
  sigma(1 1)=  4.03958638E-04  sigma(3 2)=  0.00000000E+00
  sigma(2 2)=  4.03958638E-04  sigma(3 1)=  0.00000000E+00
  sigma(3 3)=  3.56898886E-04  sigma(2 1)=  0.00000000E+00

-Cartesian components of stress tensor (GPa)         [Pressure= -1.1423E+01 GPa]
- sigma(1 1)=  1.18848715E+01  sigma(3 2)=  0.00000000E+00
- sigma(2 2)=  1.18848715E+01  sigma(3 1)=  0.00000000E+00
- sigma(3 3)=  1.05003260E+01  sigma(2 1)=  0.00000000E+00

================================================================================
== DATASET  2 ==================================================================
-   nproc =    1

 mkfilename : getden/=0, take file _DEN from output of DATASET   1.


 getdim_nloc : deduce lmnmax  =   1, lnmax  =   1,
                      lmnmaxso=   1, lnmaxso=   1.
 Exchange-correlation functional for the present dataset will be:
  LDA: new Teter (4/93) with spin-polarized option - ixc=1
 Citation for XC functional:
  S. Goedecker, M. Teter, J. Huetter, PRB 54, 1703 (1996)

 Unit cell volume ucvol=  3.4673750E+02 bohr^3
 Angles (23,13,12)=  9.00000000E+01  9.00000000E+01  1.20000000E+02 degrees

 getcut: wavevector=  0.0000  0.0000  0.0000  ngfft=  18  18  72
         ecut(hartree)=     17.000   => boxcut(ratio)=   2.08546
 wfconv:     8 bands initialized randomly with npw=   603, for ikpt=     1
 wfconv:     8 bands initialized randomly with npw=  1205, for ikpt=     2
 wfconv:     8 bands initialized randomly with npw=  1205, for ikpt=     3
 wfconv:     8 bands initialized randomly with npw=  1205, for ikpt=     4
 wfconv:     8 bands initialized randomly with npw=  1201, for ikpt=     5
 wfconv:     8 bands initialized randomly with npw=  1201, for ikpt=     6
 wfconv:     8 bands initialized randomly with npw=  1197, for ikpt=     7
 wfconv:     8 bands initialized randomly with npw=  1191, for ikpt=     8
 wfconv:     8 bands initialized randomly with npw=  1187, for ikpt=     9
 wfconv:     8 bands initialized randomly with npw=  1187, for ikpt=    10
 wfconv:     8 bands initialized randomly with npw=  1191, for ikpt=    11
 wfconv:     8 bands initialized randomly with npw=  1191, for ikpt=    12
 wfconv:     8 bands initialized randomly with npw=  1191, for ikpt=    13
 wfconv:     8 bands initialized randomly with npw=  1187, for ikpt=    14
 wfconv:     8 bands initialized randomly with npw=  1183, for ikpt=    15
 wfconv:     8 bands initialized randomly with npw=  1183, for ikpt=    16
 wfconv:     8 bands initialized randomly with npw=  1183, for ikpt=    17
 wfconv:     8 bands initialized randomly with npw=  1179, for ikpt=    18
 wfconv:     8 bands initialized randomly with npw=  1175, for ikpt=    19
 wfconv:     8 bands initialized randomly with npw=  1175, for ikpt=    20
 wfconv:     8 bands initialized randomly with npw=  1179, for ikpt=    21
 wfconv:     8 bands initialized randomly with npw=  1171, for ikpt=    22
 wfconv:     8 bands initialized randomly with npw=  1171, for ikpt=    23
 wfconv:     8 bands initialized randomly with npw=  1167, for ikpt=    24
 wfconv:     8 bands initialized randomly with npw=  1163, for ikpt=    25
 wfconv:     8 bands initialized randomly with npw=  1167, for ikpt=    26
 wfconv:     8 bands initialized randomly with npw=  1167, for ikpt=    27
 wfconv:     8 bands initialized randomly with npw=  1169, for ikpt=    28
 wfconv:     8 bands initialized randomly with npw=  1169, for ikpt=    29
 wfconv:     8 bands initialized randomly with npw=  1165, for ikpt=    30
 wfconv:     8 bands initialized randomly with npw=  1165, for ikpt=    31
 wfconv:     8 bands initialized randomly with npw=  1163, for ikpt=    32
 wfconv:     8 bands initialized randomly with npw=  1159, for ikpt=    33
 wfconv:     8 bands initialized randomly with npw=  1159, for ikpt=    34
 wfconv:     8 bands initialized randomly with npw=  1159, for ikpt=    35
 wfconv:     8 bands initialized randomly with npw=  1159, for ikpt=    36
 wfconv:     8 bands initialized randomly with npw=  1167, for ikpt=    37
 wfconv:     8 bands initialized randomly with npw=  1167, for ikpt=    38
 wfconv:     8 bands initialized randomly with npw=  1163, for ikpt=    39
 wfconv:     8 bands initialized randomly with npw=  1163, for ikpt=    40
 wfconv:     8 bands initialized randomly with npw=  1163, for ikpt=    41
 wfconv:     8 bands initialized randomly with npw=  1159, for ikpt=    42
 wfconv:     8 bands initialized randomly with npw=  1155, for ikpt=    43
 wfconv:     8 bands initialized randomly with npw=  1155, for ikpt=    44
 wfconv:     8 bands initialized randomly with npw=  1155, for ikpt=    45
 wfconv:     8 bands initialized randomly with npw=  1155, for ikpt=    46
 wfconv:     8 bands initialized randomly with npw=  1159, for ikpt=    47
 wfconv:     8 bands initialized randomly with npw=  1164, for ikpt=    48
 wfconv:     8 bands initialized randomly with npw=  1162, for ikpt=    49
 wfconv:     8 bands initialized randomly with npw=  1162, for ikpt=    50
 About to read data(r) from: graphene_xo_DS1_DEN

================================================================================

          - hdr_check: checking restart file header for consistency -


        current calculation                         restart file
        -------------------                         ------------

  calculation expects a density         |  input file contains a density
. ABINIT  code version 8.4.1            |  ABINIT  code version 8.4.1
. date 20170807 bantot 1896 natom    2  |  date 20170807 bantot   40 natom    2
  nkpt 237 nsym 24 ngfft  18,  18,  72  |  nkpt   8 nsym 24 ngfft  18,  18,  72
  ntypat  1 ecut_eff  17.0000000        |  ntypat  1 ecut_eff  17.0000000
  usepaw  0                             |  usepaw  0
  usewvl  0                             |  usewvl  0
  rprimd:                               |  rprimd:
     4.6394279   0.0000000   0.0000000  |     4.6394279   0.0000000   0.0000000
    -2.3197140   4.0178625   0.0000000  |    -2.3197140   4.0178625   0.0000000
     0.0000000   0.0000000  18.6012151  |     0.0000000   0.0000000  18.6012151
  symafm:                               |  symafm:
    1  1  1  1  1  1  1  1  1  1  1  1  |    1  1  1  1  1  1  1  1  1  1  1  1
    1  1  1  1  1  1  1  1  1  1  1  1  |    1  1  1  1  1  1  1  1  1  1  1  1
  symrel:                               |  symrel:
    1  0  0  0  1  0  0  0  1           |    1  0  0  0  1  0  0  0  1
   -1  0  0  0 -1  0  0  0 -1           |   -1  0  0  0 -1  0  0  0 -1
    0  1  0  1  0  0  0  0  1           |    0  1  0  1  0  0  0  0  1
    0 -1  0 -1  0  0  0  0 -1           |    0 -1  0 -1  0  0  0  0 -1
    1  1  0 -1  0  0  0  0  1           |    1  1  0 -1  0  0  0  0  1
   -1 -1  0  1  0  0  0  0 -1           |   -1 -1  0  1  0  0  0  0 -1
   -1  0  0  1  1  0  0  0  1           |   -1  0  0  1  1  0  0  0  1
    1  0  0 -1 -1  0  0  0 -1           |    1  0  0 -1 -1  0  0  0 -1
    0  1  0 -1 -1  0  0  0  1           |    0  1  0 -1 -1  0  0  0  1
    0 -1  0  1  1  0  0  0 -1           |    0 -1  0  1  1  0  0  0 -1
   -1 -1  0  0  1  0  0  0  1           |   -1 -1  0  0  1  0  0  0  1
    1  1  0  0 -1  0  0  0 -1           |    1  1  0  0 -1  0  0  0 -1
   -1  0  0  0 -1  0  0  0  1           |   -1  0  0  0 -1  0  0  0  1
    1  0  0  0  1  0  0  0 -1           |    1  0  0  0  1  0  0  0 -1
    0 -1  0 -1  0  0  0  0  1           |    0 -1  0 -1  0  0  0  0  1
    0  1  0  1  0  0  0  0 -1           |    0  1  0  1  0  0  0  0 -1
   -1 -1  0  1  0  0  0  0  1           |   -1 -1  0  1  0  0  0  0  1
    1  1  0 -1  0  0  0  0 -1           |    1  1  0 -1  0  0  0  0 -1
    1  0  0 -1 -1  0  0  0  1           |    1  0  0 -1 -1  0  0  0  1
   -1  0  0  1  1  0  0  0 -1           |   -1  0  0  1  1  0  0  0 -1
    0 -1  0  1  1  0  0  0  1           |    0 -1  0  1  1  0  0  0  1
    0  1  0 -1 -1  0  0  0 -1           |    0  1  0 -1 -1  0  0  0 -1
    1  1  0  0 -1  0  0  0  1           |    1  1  0  0 -1  0  0  0  1
   -1 -1  0  0  1  0  0  0 -1           |   -1 -1  0  0  1  0  0  0 -1
  typat:                                |  typat:
    1  1                                |    1  1
  so_psp  :                             |  so_psp  :
    1                                   |    1

--- !WARNING
src_file: m_hdr.F90
src_line: 4248
message: |
    input kptrlatt= 0 0 0 0 0 0 0 0 0  /= disk file kptrlatt=4 0 0 0 4 0 0 0 4
...


--- !WARNING
src_file: m_hdr.F90
src_line: 4251
message: |
    input kptopt= -3  /= disk file kptopt= 1
...

  tnons:                                |  tnons:
     0.0000000   0.0000000   0.0000000  |     0.0000000   0.0000000   0.0000000
    -0.3333333   0.3333333   0.0000000  |    -0.3333333   0.3333333   0.0000000
    -0.3333333   0.3333333   0.0000000  |    -0.3333333   0.3333333   0.0000000
     0.0000000   0.0000000   0.0000000  |     0.0000000   0.0000000   0.0000000
    -0.3333333   0.3333333   0.0000000  |    -0.3333333   0.3333333   0.0000000
     0.0000000   0.0000000   0.0000000  |     0.0000000   0.0000000   0.0000000
     0.0000000   0.0000000   0.0000000  |     0.0000000   0.0000000   0.0000000
    -0.3333333   0.3333333   0.0000000  |    -0.3333333   0.3333333   0.0000000
     0.0000000   0.0000000   0.0000000  |     0.0000000   0.0000000   0.0000000
    -0.3333333   0.3333333   0.0000000  |    -0.3333333   0.3333333   0.0000000
    -0.3333333   0.3333333   0.0000000  |    -0.3333333   0.3333333   0.0000000
     0.0000000   0.0000000   0.0000000  |     0.0000000   0.0000000   0.0000000
    -0.3333333   0.3333333   0.0000000  |    -0.3333333   0.3333333   0.0000000
     0.0000000   0.0000000   0.0000000  |     0.0000000   0.0000000   0.0000000
     0.0000000   0.0000000   0.0000000  |     0.0000000   0.0000000   0.0000000
    -0.3333333   0.3333333   0.0000000  |    -0.3333333   0.3333333   0.0000000
     0.0000000   0.0000000   0.0000000  |     0.0000000   0.0000000   0.0000000
    -0.3333333   0.3333333   0.0000000  |    -0.3333333   0.3333333   0.0000000
    -0.3333333   0.3333333   0.0000000  |    -0.3333333   0.3333333   0.0000000
     0.0000000   0.0000000   0.0000000  |     0.0000000   0.0000000   0.0000000
    -0.3333333   0.3333333   0.0000000  |    -0.3333333   0.3333333   0.0000000
     0.0000000   0.0000000   0.0000000  |     0.0000000   0.0000000   0.0000000
     0.0000000   0.0000000   0.0000000  |     0.0000000   0.0000000   0.0000000
    -0.3333333   0.3333333   0.0000000  |    -0.3333333   0.3333333   0.0000000
   znucl:                               |   znucl:
    6.00                                |    6.00
  pseudopotential atom type  1:         |  pseudopotential atom type  1:
  pspso   0 pspxc   1                   |  pspso   0 pspxc   1
  pspdat 940714 pspcod    1 zion   4.0  |  pspdat 940714 pspcod    1 zion   4.0
  xred:                                 |  xred:
     0.0000000   0.0000000   0.0000000  |     0.0000000   0.0000000   0.0000000
     0.6666667   0.3333333   0.0000000  |     0.6666667   0.3333333   0.0000000
 hdr_check:  Density/Potential file is OK for restart of calculation
================================================================================
 IO operation completed. cpu_time:       0.0 [s], walltime:       0.0 [s]

================================================================================
 in scfcv: results_gs%fermie:  -0.11300014528530827     

 getcut: wavevector=  0.0000  0.0000  0.0000  ngfft=  18  18  72
         ecut(hartree)=     17.000   => boxcut(ratio)=   2.08546

--- !WARNING
src_file: m_ewald.F90
src_line: 145
message: |
    Very large box of G neighbors in ewald: you probably do not want to do this.
     If you have a metal consider setting dipdip 0.  ng =         30
...


--- !WARNING
src_file: m_ewald.F90
src_line: 145
message: |
    Very large box of G neighbors in ewald: you probably do not want to do this.
     If you have a metal consider setting dipdip 0.  ng =         40
...

 vtorho : nnsclo_now=10, note that nnsclo,dbl_nnsclo,istep=0 0 1
 non-scf iterations; kpt #     1  , k= (  0.00000  0.00000  0.00000  ), band residuals:
 res:  4.80E-01  6.91E-01  7.47E-02  2.36E-01  1.14E-01  1.44E-01  1.57E-01  5.76E-01
 ene: -5.77E-01 -1.73E-01 -1.05E-01  5.44E-02  1.64E-01  2.03E-01  3.05E-01  5.53E-01
 res:  1.06E-02  5.89E-03  8.15E-04  1.52E-02  4.58E-03  9.56E-03  4.50E-03  2.86E-02
 ene: -7.41E-01 -3.10E-01 -1.36E-01 -1.33E-01  9.07E-02  1.56E-01  1.98E-01  3.08E-01
 res:  1.46E-04  5.76E-06  1.21E-06  5.03E-05  2.55E-05  4.51E-05  7.17E-05  3.42E-03
 ene: -7.44E-01 -3.11E-01 -1.36E-01 -1.36E-01  9.03E-02  1.54E-01  1.95E-01  2.85E-01
 res:  4.06E-06  3.06E-08  2.58E-09  8.49E-08  3.44E-07  1.63E-06  1.93E-06  4.52E-05
 ene: -7.44E-01 -3.11E-01 -1.36E-01 -1.36E-01  9.03E-02  1.54E-01  1.95E-01  2.84E-01
 res:  1.42E-07  1.37E-11  1.57E-11  1.68E-10  1.97E-08  7.52E-08  2.08E-07  7.33E-06
 ene: -7.44E-01 -3.11E-01 -1.36E-01 -1.36E-01  9.03E-02  1.54E-01  1.95E-01  2.84E-01
 res:  6.91E-09  5.89E-13  3.88E-13  5.95E-13  5.48E-10  5.14E-09  2.15E-08  3.47E-07
 ene: -7.44E-01 -3.11E-01 -1.36E-01 -1.36E-01  9.03E-02  1.54E-01  1.95E-01  2.84E-01
 res:  2.44E-10  5.89E-13  3.54E-13  6.28E-13  3.54E-11  3.93E-10  2.82E-09  6.03E-08
 ene: -7.44E-01 -3.11E-01 -1.36E-01 -1.36E-01  9.03E-02  1.54E-01  1.95E-01  2.84E-01
 res:  1.31E-11  5.89E-13  3.54E-13  6.28E-13  1.12E-12  3.13E-11  3.45E-10  3.24E-09
 ene: -7.44E-01 -3.11E-01 -1.36E-01 -1.36E-01  9.03E-02  1.54E-01  1.95E-01  2.84E-01
 res:  7.07E-13  5.89E-13  3.54E-13  6.28E-13  9.66E-13  2.60E-12  4.55E-11  6.15E-10
 ene: -7.44E-01 -3.11E-01 -1.36E-01 -1.36E-01  9.03E-02  1.54E-01  1.95E-01  2.84E-01
 res:  7.07E-13  5.89E-13  3.54E-13  6.28E-13  9.66E-13  8.62E-13  5.84E-12  3.26E-11
 ene: -7.44E-01 -3.11E-01 -1.36E-01 -1.36E-01  9.03E-02  1.54E-01  1.95E-01  2.84E-01
     eigenvalues (hartree) for    8  bands
              after   10 non-SCF iterations with    4 CG line minimizations
 -7.4443E-01 -3.1120E-01 -1.3621E-01 -1.3621E-01  9.0320E-02  1.5439E-01
  1.9528E-01  2.8379E-01
      mean kinetic energy (hartree) for     8   bands
              after   10 non-SCF iterations with    4 CG line minimizations
  2.0460E-01  7.9317E-01  1.8554E+00  1.8554E+00  1.0365E-01  2.3664E-01
  1.8016E-01  1.9501E+00
      mean non-local energy (hartree) for     8   bands
              after   10 non-SCF iterations with    4 CG line minimizations
  4.5455E-01  4.9318E-14  8.2912E-15  1.2641E-14  2.5535E-02  1.1923E-12
  2.4986E-02  6.5243E-15
 non-scf iterations; kpt #     2  , k= (  0.00581  0.00000  0.00000  ), band residuals:
 res:  3.99E-01  2.98E-01  1.40E-01  2.05E-01  1.93E-01  1.10E-01  6.01E-02  6.14E-02
 ene: -5.33E-01 -2.48E-01 -7.20E-02 -2.68E-02  1.28E-01  2.04E-01  2.40E-01  4.09E-01
 res:  1.11E-02  2.65E-03  2.62E-03  7.25E-03  2.39E-03  1.56E-03  4.62E-03  1.22E-02
 ene: -7.43E-01 -3.11E-01 -1.36E-01 -1.35E-01  9.08E-02  1.55E-01  1.96E-01  3.00E-01
 res:  1.03E-04  9.03E-06  8.08E-06  9.85E-06  9.35E-06  2.91E-05  1.16E-05  1.26E-03
 ene: -7.44E-01 -3.11E-01 -1.36E-01 -1.36E-01  9.04E-02  1.54E-01  1.95E-01  2.85E-01
 res:  1.53E-06  1.04E-07  6.70E-08  2.69E-08  2.59E-07  1.04E-06  6.37E-07  5.02E-05
 ene: -7.44E-01 -3.11E-01 -1.36E-01 -1.36E-01  9.04E-02  1.54E-01  1.95E-01  2.84E-01
 res:  8.47E-08  8.16E-11  8.51E-11  1.63E-10  4.30E-09  1.03E-07  5.71E-09  4.10E-06
 ene: -7.44E-01 -3.11E-01 -1.36E-01 -1.36E-01  9.04E-02  1.54E-01  1.95E-01  2.84E-01
 res:  3.36E-09  1.56E-12  6.73E-13  6.22E-13  2.77E-10  6.24E-09  3.25E-10  1.74E-07
 ene: -7.44E-01 -3.11E-01 -1.36E-01 -1.36E-01  9.04E-02  1.54E-01  1.95E-01  2.84E-01
 res:  2.05E-10  2.46E-13  6.73E-13  6.22E-13  7.58E-12  6.72E-10  2.72E-11  3.32E-08
 ene: -7.44E-01 -3.11E-01 -1.36E-01 -1.36E-01  9.04E-02  1.54E-01  1.95E-01  2.84E-01
 res:  9.21E-12  2.46E-13  6.73E-13  6.22E-13  5.17E-13  4.80E-11  3.44E-12  2.69E-08
 ene: -7.44E-01 -3.11E-01 -1.36E-01 -1.36E-01  9.04E-02  1.54E-01  1.95E-01  2.84E-01
 res:  9.52E-13  2.46E-13  6.73E-13  6.22E-13  5.17E-13  5.21E-12  8.31E-13  1.21E-08
 ene: -7.44E-01 -3.11E-01 -1.36E-01 -1.36E-01  9.04E-02  1.54E-01  1.95E-01  2.84E-01
 res:  9.52E-13  2.46E-13  6.73E-13  6.22E-13  5.17E-13  3.81E-13  8.31E-13  2.56E-08
 ene: -7.44E-01 -3.11E-01 -1.36E-01 -1.36E-01  9.04E-02  1.54E-01  1.95E-01  2.84E-01
     eigenvalues (hartree) for    8  bands
              after   10 non-SCF iterations with    4 CG line minimizations
 -7.4440E-01 -3.1117E-01 -1.3633E-01 -1.3627E-01  9.0360E-02  1.5443E-01
  1.9532E-01  2.8389E-01
      mean kinetic energy (hartree) for     8   bands
              after   10 non-SCF iterations with    4 CG line minimizations
  2.0466E-01  7.9322E-01  1.8549E+00  1.8552E+00  1.0371E-01  2.3669E-01
  1.8022E-01  1.9502E+00
      mean non-local energy (hartree) for     8   bands
              after   10 non-SCF iterations with    4 CG line minimizations
  4.5454E-01  1.9082E-14  1.9404E-04  5.8780E-14  2.5531E-02  6.9556E-13
  2.4976E-02  3.6683E-05
 non-scf iterations; kpt #     3  , k= (  0.01163  0.00000  0.00000  ), band residuals:
 res:  4.00E-01  2.97E-01  1.40E-01  2.03E-01  1.91E-01  1.11E-01  6.01E-02  6.11E-02
 ene: -5.35E-01 -2.48E-01 -7.33E-02 -2.80E-02  1.28E-01  2.04E-01  2.41E-01  4.09E-01
 res:  1.11E-02  2.62E-03  2.64E-03  7.17E-03  2.35E-03  1.51E-03  4.74E-03  1.22E-02
 ene: -7.43E-01 -3.10E-01 -1.36E-01 -1.35E-01  9.09E-02  1.55E-01  1.96E-01  3.01E-01
 res:  1.02E-04  8.86E-06  8.07E-06  9.33E-06  9.50E-06  2.87E-05  1.21E-05  1.28E-03
 ene: -7.44E-01 -3.11E-01 -1.37E-01 -1.36E-01  9.05E-02  1.55E-01  1.95E-01  2.85E-01
 res:  1.44E-06  1.02E-07  7.01E-08  2.70E-08  2.63E-07  1.10E-06  6.10E-07  5.15E-05
 ene: -7.44E-01 -3.11E-01 -1.37E-01 -1.36E-01  9.05E-02  1.55E-01  1.95E-01  2.84E-01
 res:  8.28E-08  7.95E-11  1.05E-10  1.55E-10  4.29E-09  1.05E-07  5.72E-09  4.38E-06
 ene: -7.44E-01 -3.11E-01 -1.37E-01 -1.36E-01  9.05E-02  1.55E-01  1.95E-01  2.84E-01
 res:  3.18E-09  1.52E-12  8.47E-13  6.79E-13  2.71E-10  6.56E-09  3.42E-10  3.64E-07
 ene: -7.44E-01 -3.11E-01 -1.37E-01 -1.36E-01  9.05E-02  1.55E-01  1.95E-01  2.84E-01
 res:  2.03E-10  2.40E-13  8.47E-13  6.79E-13  7.46E-12  6.86E-10  3.20E-11  4.32E-07
 ene: -7.44E-01 -3.11E-01 -1.37E-01 -1.36E-01  9.05E-02  1.55E-01  1.95E-01  2.84E-01
 res:  8.80E-12  2.40E-13  8.47E-13  6.79E-13  5.02E-13  5.08E-11  3.95E-12  2.50E-07
 ene: -7.44E-01 -3.11E-01 -1.37E-01 -1.36E-01  9.05E-02  1.55E-01  1.95E-01  2.84E-01
 res:  9.53E-13  2.40E-13  8.47E-13  6.79E-13  5.02E-13  5.35E-12  3.95E-13  4.26E-07
 ene: -7.44E-01 -3.11E-01 -1.37E-01 -1.36E-01  9.05E-02  1.55E-01  1.95E-01  2.84E-01
 res:  9.53E-13  2.40E-13  8.47E-13  6.79E-13  5.02E-13  4.05E-13  3.95E-13  2.56E-07
 ene: -7.44E-01 -3.11E-01 -1.37E-01 -1.36E-01  9.05E-02  1.55E-01  1.95E-01  2.84E-01
     eigenvalues (hartree) for    8  bands
              after   10 non-SCF iterations with    4 CG line minimizations
 -7.4431E-01 -3.1106E-01 -1.3669E-01 -1.3647E-01  9.0481E-02  1.5455E-01
  1.9544E-01  2.8419E-01
      mean kinetic energy (hartree) for     8   bands
              after   10 non-SCF iterations with    4 CG line minimizations
  2.0484E-01  7.9340E-01  1.8533E+00  1.8546E+00  1.0386E-01  2.3682E-01
  1.8041E-01  1.9506E+00
      mean non-local energy (hartree) for     8   bands
              after   10 non-SCF iterations with    4 CG line minimizations
  4.5451E-01  1.8892E-14  7.7475E-04  5.5258E-14  2.5520E-02  7.6728E-13
  2.4946E-02  1.5424E-04
 non-scf iterations; kpt #     4  , k= (  0.01744  0.00000  0.00000  ), band residuals:
 res:  4.01E-01  2.96E-01  1.41E-01  2.01E-01  1.89E-01  1.11E-01  6.01E-02  6.07E-02
[...]
 kpt# 212, nband=  8, wtk=  1.00000, kpt=  0.0833  0.0833  0.0000 (reduced coord)
 -19.76055   -7.86449   -5.34067   -4.70669    3.13050    4.86783    5.98064    8.10407
 kpt# 213, nband=  8, wtk=  1.00000, kpt=  0.0800  0.0800  0.0000 (reduced coord)
 -19.79943   -7.91080   -5.22832   -4.63033    3.07774    4.81585    5.92827    8.07362
 kpt# 214, nband=  8, wtk=  1.00000, kpt=  0.0767  0.0767  0.0000 (reduced coord)
 -19.83674   -7.95529   -5.12412   -4.56293    3.02712    4.76597    5.87805    8.04823
 kpt# 215, nband=  8, wtk=  1.00000, kpt=  0.0733  0.0733  0.0000 (reduced coord)
 -19.87247   -7.99789   -5.02058   -4.49199    2.97867    4.71818    5.82998    8.01722
 kpt# 216, nband=  8, wtk=  1.00000, kpt=  0.0700  0.0700  0.0000 (reduced coord)
 -19.90662   -8.03864   -4.92459   -4.42414    2.93237    4.67250    5.78405    7.99037
 kpt# 217, nband=  8, wtk=  1.00000, kpt=  0.0667  0.0667  0.0000 (reduced coord)
 -19.93919   -8.07751   -4.82179   -4.35765    2.88822    4.62892    5.74027    7.96643
 kpt# 218, nband=  8, wtk=  1.00000, kpt=  0.0633  0.0633  0.0000 (reduced coord)
 -19.96968   -8.11672   -4.71247   -4.29368    2.84626    4.58706    5.69869    7.94666
 kpt# 219, nband=  8, wtk=  1.00000, kpt=  0.0600  0.0600  0.0000 (reduced coord)
 -19.99911   -8.15225   -4.61546   -4.23260    2.80643    4.54764    5.65919    7.91783
 kpt# 220, nband=  8, wtk=  1.00000, kpt=  0.0567  0.0567  0.0000 (reduced coord)
 -20.02695   -8.18665   -4.53354   -4.18268    2.76875    4.51019    5.62184    7.89639
 kpt# 221, nband=  8, wtk=  1.00000, kpt=  0.0533  0.0533  0.0000 (reduced coord)
 -20.05321   -8.21804   -4.44352   -4.12729    2.73322    4.47506    5.58664    7.87799
 kpt# 222, nband=  8, wtk=  1.00000, kpt=  0.0500  0.0500  0.0000 (reduced coord)
 -20.07789   -8.24761   -4.36370   -4.08171    2.69985    4.44203    5.55357    8.04275
 kpt# 223, nband=  8, wtk=  1.00000, kpt=  0.0467  0.0467  0.0000 (reduced coord)
 -20.10100   -8.27533   -4.28214   -4.04181    2.66863    4.41113    5.52265    7.84831
 kpt# 224, nband=  8, wtk=  1.00000, kpt=  0.0433  0.0433  0.0000 (reduced coord)
 -20.12249   -8.30105   -4.20414   -3.99572    2.63957    4.38236    5.49387    7.83335
 kpt# 225, nband=  8, wtk=  1.00000, kpt=  0.0400  0.0400  0.0000 (reduced coord)
 -20.14238   -8.32487   -4.13061   -3.95277    2.61266    4.35572    5.46722    7.82080
 kpt# 226, nband=  8, wtk=  1.00000, kpt=  0.0367  0.0367  0.0000 (reduced coord)
 -20.16070   -8.34685   -4.07302   -3.91397    2.58791    4.33119    5.44271    7.80861
 kpt# 227, nband=  8, wtk=  1.00000, kpt=  0.0333  0.0333  0.0000 (reduced coord)
 -20.17749   -8.36786   -4.00943   -3.87775    2.56531    4.30863    5.42034    7.91037
 kpt# 228, nband=  8, wtk=  1.00000, kpt=  0.0300  0.0300  0.0000 (reduced coord)
 -20.19246   -8.38643   -3.95458   -3.84754    2.54488    4.28830    5.40013    7.78935
 kpt# 229, nband=  8, wtk=  1.00000, kpt=  0.0267  0.0267  0.0000 (reduced coord)
 -20.20590   -8.40251   -3.89731   -3.81212    2.52660    4.27019    5.38204    7.78556
 kpt# 230, nband=  8, wtk=  1.00000, kpt=  0.0233  0.0233  0.0000 (reduced coord)
 -20.21790   -8.41969   -3.85001   -3.78578    2.51046    4.25369    5.36606    7.76891
 kpt# 231, nband=  8, wtk=  1.00000, kpt=  0.0200  0.0200  0.0000 (reduced coord)
 -20.22818   -8.43306   -3.80557   -3.76277    2.49649    4.23965    5.35224    7.75984
 kpt# 232, nband=  8, wtk=  1.00000, kpt=  0.0167  0.0167  0.0000 (reduced coord)
 -20.23703   -8.44418   -3.77620   -3.74997    2.48464    4.22781    5.34052    7.74559
 kpt# 233, nband=  8, wtk=  1.00000, kpt=  0.0133  0.0133  0.0000 (reduced coord)
 -20.24422   -8.45280   -3.74706   -3.73407    2.47496    4.21820    5.33094    7.73896
 kpt# 234, nband=  8, wtk=  1.00000, kpt=  0.0100  0.0100  0.0000 (reduced coord)
 -20.24985   -8.45961   -3.73572   -3.72238    2.46742    4.21071    5.32348    7.74396
 kpt# 235, nband=  8, wtk=  1.00000, kpt=  0.0067  0.0067  0.0000 (reduced coord)
 -20.25385   -8.46440   -3.71946   -3.71351    2.46204    4.20537    5.31816    7.73250
 kpt# 236, nband=  8, wtk=  1.00000, kpt=  0.0033  0.0033  0.0000 (reduced coord)
 -20.25624   -8.46727   -3.70967   -3.70818    2.45881    4.20217    5.31497    7.72498
 kpt# 237, nband=  8, wtk=  1.00000, kpt=  0.0000  0.0000  0.0000 (reduced coord)
 -20.25704   -8.46823   -3.70641   -3.70641    2.45774    4.20110    5.31390    7.72233
 Total charge density [el/Bohr^3]
      Maximum=    3.4063E-01  at reduced coord.    0.8889    0.7778    0.0000
 Next maximum=    3.4063E-01  at reduced coord.    0.7778    0.5556    0.0000
      Minimum=    3.1797E-07  at reduced coord.    0.5000    0.0000    0.4861
 Next minimum=    3.1797E-07  at reduced coord.    0.1667    0.3333    0.4861
   Integrated=    8.0000E+00

== END DATASET(S) ==============================================================
================================================================================
  
 -outvars: echo values of variables after computation  --------
            acell      4.6394279353E+00  4.6394279353E+00  1.8601215051E+01 Bohr
              amu      1.20110000E+01
           diemac      1.20000000E+01
             ecut      1.70000000E+01 Hartree
           enunit1          0
           enunit2          1
           etotal1    -1.2036211618E+01
            fcart1    -1.1607660516E-28  1.3403371848E-28 -0.0000000000E+00
                       1.1607660516E-28 -1.3403371848E-28 -0.0000000000E+00
-          fftalg         112
           getden1          0
           getden2         -1
             iscf1          7
             iscf2         -2
           istwfk2       2    0    0    0    0    0    0    0    0    0
                         0    0    0    0    0    0    0    0    0    0
                         0    0    0    0    0    0    0    0    0    0
                         0    0    0    0    0    0    0    0    0    0
                         0    0    0    0    0    0    0    0    0    0
                       outvar_i_n : Printing only first  50 k-points.
           jdtset        1    2
              kpt1     0.00000000E+00  0.00000000E+00  1.25000000E-01
                       2.50000000E-01  0.00000000E+00  1.25000000E-01
                       5.00000000E-01  0.00000000E+00  1.25000000E-01
                       2.50000000E-01  2.50000000E-01  1.25000000E-01
                       0.00000000E+00  0.00000000E+00  3.75000000E-01
                       2.50000000E-01  0.00000000E+00  3.75000000E-01
                       5.00000000E-01  0.00000000E+00  3.75000000E-01
                       2.50000000E-01  2.50000000E-01  3.75000000E-01
              kpt2     0.00000000E+00  0.00000000E+00  0.00000000E+00
                       5.81395349E-03  0.00000000E+00  0.00000000E+00
                       1.16279070E-02  0.00000000E+00  0.00000000E+00
                       1.74418605E-02  0.00000000E+00  0.00000000E+00
                       2.32558140E-02  0.00000000E+00  0.00000000E+00
                       2.90697674E-02  0.00000000E+00  0.00000000E+00
                       3.48837209E-02  0.00000000E+00  0.00000000E+00
                       4.06976744E-02  0.00000000E+00  0.00000000E+00
                       4.65116279E-02  0.00000000E+00  0.00000000E+00
                       5.23255814E-02  0.00000000E+00  0.00000000E+00
                       5.81395349E-02  0.00000000E+00  0.00000000E+00
                       6.39534884E-02  0.00000000E+00  0.00000000E+00
                       6.97674419E-02  0.00000000E+00  0.00000000E+00
                       7.55813953E-02  0.00000000E+00  0.00000000E+00
                       8.13953488E-02  0.00000000E+00  0.00000000E+00
                       8.72093023E-02  0.00000000E+00  0.00000000E+00
                       9.30232558E-02  0.00000000E+00  0.00000000E+00
                       9.88372093E-02  0.00000000E+00  0.00000000E+00
                       1.04651163E-01  0.00000000E+00  0.00000000E+00
                       1.10465116E-01  0.00000000E+00  0.00000000E+00
                       1.16279070E-01  0.00000000E+00  0.00000000E+00
                       1.22093023E-01  0.00000000E+00  0.00000000E+00
                       1.27906977E-01  0.00000000E+00  0.00000000E+00
                       1.33720930E-01  0.00000000E+00  0.00000000E+00
                       1.39534884E-01  0.00000000E+00  0.00000000E+00
                       1.45348837E-01  0.00000000E+00  0.00000000E+00
                       1.51162791E-01  0.00000000E+00  0.00000000E+00
                       1.56976744E-01  0.00000000E+00  0.00000000E+00
                       1.62790698E-01  0.00000000E+00  0.00000000E+00
                       1.68604651E-01  0.00000000E+00  0.00000000E+00
                       1.74418605E-01  0.00000000E+00  0.00000000E+00
                       1.80232558E-01  0.00000000E+00  0.00000000E+00
                       1.86046512E-01  0.00000000E+00  0.00000000E+00
                       1.91860465E-01  0.00000000E+00  0.00000000E+00
                       1.97674419E-01  0.00000000E+00  0.00000000E+00
                       2.03488372E-01  0.00000000E+00  0.00000000E+00
                       2.09302326E-01  0.00000000E+00  0.00000000E+00
                       2.15116279E-01  0.00000000E+00  0.00000000E+00
                       2.20930233E-01  0.00000000E+00  0.00000000E+00
                       2.26744186E-01  0.00000000E+00  0.00000000E+00
                       2.32558140E-01  0.00000000E+00  0.00000000E+00
                       2.38372093E-01  0.00000000E+00  0.00000000E+00
                       2.44186047E-01  0.00000000E+00  0.00000000E+00
                       2.50000000E-01  0.00000000E+00  0.00000000E+00
                       2.55813953E-01  0.00000000E+00  0.00000000E+00
                       2.61627907E-01  0.00000000E+00  0.00000000E+00
                       2.67441860E-01  0.00000000E+00  0.00000000E+00
                       2.73255814E-01  0.00000000E+00  0.00000000E+00
                       2.79069767E-01  0.00000000E+00  0.00000000E+00
                       2.84883721E-01  0.00000000E+00  0.00000000E+00
                       outvar_i_n : Printing only first  50 k-points.
           kptopt1          1
           kptopt2         -3
         kptrlatt        4    0    0      0    4    0      0    0    4
          kptrlen1     1.85577117E+01
          kptrlen2     3.00000000E+01
P           mkmem1          8
P           mkmem2        237
            natom           2
            nband1          5
            nband2          8
           nbdbuf1          0
           nbdbuf2          2
           ndtset           2
            ngfft          18      18      72
             nkpt1          8
             nkpt2        237
            nstep          10
             nsym          24
           ntypat           1
              occ      2.000000  2.000000  2.000000  2.000000  0.000000
            rprim      1.0000000000E+00  0.0000000000E+00  0.0000000000E+00
                      -5.0000000000E-01  8.6602540378E-01  0.0000000000E+00
                       0.0000000000E+00  0.0000000000E+00  1.0000000000E+00
           shiftk1     0.00000000E+00  0.00000000E+00  5.00000000E-01
           shiftk2     5.00000000E-01  5.00000000E-01  5.00000000E-01
          spgroup         191
           strten1     4.0395863795E-04  4.0395863796E-04  3.5689888624E-04
                       0.0000000000E+00  0.0000000000E+00  0.0000000000E+00
           symrel      1  0  0   0  1  0   0  0  1      -1  0  0   0 -1  0   0  0 -1
                       0  1  0   1  0  0   0  0  1       0 -1  0  -1  0  0   0  0 -1
                       1  1  0  -1  0  0   0  0  1      -1 -1  0   1  0  0   0  0 -1
                      -1  0  0   1  1  0   0  0  1       1  0  0  -1 -1  0   0  0 -1
                       0  1  0  -1 -1  0   0  0  1       0 -1  0   1  1  0   0  0 -1
                      -1 -1  0   0  1  0   0  0  1       1  1  0   0 -1  0   0  0 -1
                      -1  0  0   0 -1  0   0  0  1       1  0  0   0  1  0   0  0 -1
                       0 -1  0  -1  0  0   0  0  1       0  1  0   1  0  0   0  0 -1
                      -1 -1  0   1  0  0   0  0  1       1  1  0  -1  0  0   0  0 -1
                       1  0  0  -1 -1  0   0  0  1      -1  0  0   1  1  0   0  0 -1
                       0 -1  0   1  1  0   0  0  1       0  1  0  -1 -1  0   0  0 -1
                       1  1  0   0 -1  0   0  0  1      -1 -1  0   0  1  0   0  0 -1
            tnons      0.0000000  0.0000000  0.0000000    -0.3333333  0.3333333  0.0000000
                      -0.3333333  0.3333333  0.0000000     0.0000000  0.0000000  0.0000000
                      -0.3333333  0.3333333  0.0000000     0.0000000  0.0000000  0.0000000
                       0.0000000  0.0000000  0.0000000    -0.3333333  0.3333333  0.0000000
                       0.0000000  0.0000000  0.0000000    -0.3333333  0.3333333  0.0000000
                      -0.3333333  0.3333333  0.0000000     0.0000000  0.0000000  0.0000000
                      -0.3333333  0.3333333  0.0000000     0.0000000  0.0000000  0.0000000
                       0.0000000  0.0000000  0.0000000    -0.3333333  0.3333333  0.0000000
                       0.0000000  0.0000000  0.0000000    -0.3333333  0.3333333  0.0000000
                      -0.3333333  0.3333333  0.0000000     0.0000000  0.0000000  0.0000000
                      -0.3333333  0.3333333  0.0000000     0.0000000  0.0000000  0.0000000
                       0.0000000  0.0000000  0.0000000    -0.3333333  0.3333333  0.0000000
           toldfe1     1.00000000E-06 Hartree
           toldfe2     0.00000000E+00 Hartree
           tolwfr1     0.00000000E+00
           tolwfr2     1.00000000E-12
            typat      1  1
              wtk1       0.03125    0.18750    0.09375    0.18750    0.03125    0.18750
                         0.09375    0.18750
              wtk2       1.00000    1.00000    1.00000    1.00000    1.00000    1.00000
                         1.00000    1.00000    1.00000    1.00000    1.00000    1.00000
                         1.00000    1.00000    1.00000    1.00000    1.00000    1.00000
                         1.00000    1.00000    1.00000    1.00000    1.00000    1.00000
                         1.00000    1.00000    1.00000    1.00000    1.00000    1.00000
                         1.00000    1.00000    1.00000    1.00000    1.00000    1.00000
                         1.00000    1.00000    1.00000    1.00000    1.00000    1.00000
                         1.00000    1.00000    1.00000    1.00000    1.00000    1.00000
                         1.00000    1.00000
                       outvars : Printing only first  50 k-points.
           xangst      0.0000000000E+00  0.0000000000E+00  0.0000000000E+00
                       1.2275397621E+00  7.0872041210E-01  0.0000000000E+00
            xcart      0.0000000000E+00  0.0000000000E+00  0.0000000000E+00
                       2.3197139676E+00  1.3392874837E+00  0.0000000000E+00
             xred      0.0000000000E+00  0.0000000000E+00  0.0000000000E+00
                       6.6666666667E-01  3.3333333333E-01  0.0000000000E+00
            znucl        6.00000

================================================================================
  

================================================================================

 Suggested references for the acknowledgment of ABINIT usage.

 The users of ABINIT have little formal obligations with respect to the ABINIT group
 (those specified in the GNU General Public License, http://www.gnu.org/copyleft/gpl.txt).
 However, it is common practice in the scientific literature,
 to acknowledge the efforts of people that have made the research possible.
 In this spirit, please find below suggested citations of work written by ABINIT developers,
 corresponding to implementations inside of ABINIT that you have used in the present run.
 Note also that it will be of great value to readers of publications presenting these results,
 to read papers enabling them to understand the theoretical formalism and details
 of the ABINIT implementation.
 For information on why they are suggested, see also http://www.abinit.org/about/?text=acknowledgments.
-
- [1] Recent developments in the ABINIT software package.
- Computer Phys. Comm. 205, 106 (2016).
- X.Gonze, F.Jollet, F.Abreu Araujo, D.Adams, B.Amadon, T.Applencourt,
- C.Audouze, J.-M.Beuken, J.Bieder, A.Bokhanchuk, E.Bousquet, F.Bruneval
- D.Caliste, M.Cote, F.Dahm, F.Da Pieve, M.Delaveau, M.Di Gennaro,
- B.Dorado, C.Espejo, G.Geneste, L.Genovese, A.Gerossier, M.Giantomassi,
- Y.Gillet, D.R.Hamann, L.He, G.Jomard, J.Laflamme Janssen, S.Le Roux,
- A.Levitt, A.Lherbier, F.Liu, I.Lukacevic, A.Martin, C.Martins,
- M.J.T.Oliveira, S.Ponce, Y.Pouillon, T.Rangel, G.-M.Rignanese,
- A.H.Romero, B.Rousseau, O.Rubel, A.A.Shukri, M.Stankovski, M.Torrent,
- M.J.Van Setten, B.Van Troeye, M.J.Verstraete, D.Waroquier, J.Wiktor,
- B.Xue, A.Zhou, J.W.Zwanziger.
- Comment : the fourth generic paper describing the ABINIT project.
- Note that a version of this paper, that is not formatted for Computer Phys. Comm. 
- is available at http://www.abinit.org/about/ABINIT16.pdf .
- The licence allows the authors to put it on the Web.
-
- [2] ABINIT : First-principles approach of materials and nanosystem properties.
- Computer Phys. Comm. 180, 2582-2615 (2009).
- X. Gonze, B. Amadon, P.-M. Anglade, J.-M. Beuken, F. Bottin, P. Boulanger, F. Bruneval,
- D. Caliste, R. Caracas, M. Cote, T. Deutsch, L. Genovese, Ph. Ghosez, M. Giantomassi
- S. Goedecker, D.R. Hamann, P. Hermet, F. Jollet, G. Jomard, S. Leroux, M. Mancini, S. Mazevet,
- M.J.T. Oliveira, G. Onida, Y. Pouillon, T. Rangel, G.-M. Rignanese, D. Sangalli, R. Shaltaf,
- M. Torrent, M.J. Verstraete, G. Zerah, J.W. Zwanziger
- Comment : the third generic paper describing the ABINIT project.
- Note that a version of this paper, that is not formatted for Computer Phys. Comm. 
- is available at http://www.abinit.org/about/ABINIT_CPC_v10.pdf .
- The licence allows the authors to put it on the Web.
-
- [3] A brief introduction to the ABINIT software package.
- Z. Kristallogr. 220, 558-562 (2005).
- X. Gonze, G.-M. Rignanese, M. Verstraete, J.-M. Beuken, Y. Pouillon, R. Caracas, F. Jollet,
- M. Torrent, G. Zerah, M. Mikami, Ph. Ghosez, M. Veithen, J.-Y. Raty, V. Olevano, F. Bruneval,
- L. Reining, R. Godby, G. Onida, D.R. Hamann, and D.C. Allan.
- Comment : the second generic paper describing the ABINIT project. Note that this paper
- should be cited especially if you are using the GW part of ABINIT, as several authors
- of this part are not in the list of authors of the first or third paper.
- The .pdf of the latter paper is available at http://www.abinit.org/about/zfk_0505-06_558-562.pdf.
- Note that it should not redistributed (Copyright by Oldenburg Wissenshaftverlag,
- the licence allows the authors to put it on the Web).
-
- And optionally:
-
- [4] First-principles computation of material properties : the ABINIT software project. 
- X. Gonze, J.-M. Beuken, R. Caracas, F. Detraux, M. Fuchs, G.-M. Rignanese, L. Sindic,
- M. Verstraete, G. Zerah, F. Jollet, M. Torrent, A. Roy, M. Mikami, Ph. Ghosez, J.-Y. Raty, D.C. Allan.
- Computational Materials Science 25, 478-492 (2002). http://dx.doi.org/10.1016/S0927-0256(02)00325-7
- Comment : the original paper describing the ABINIT project.
  Asked to delete not existent file: graphene_x_STATUS

 Calculation completed.
.Delivered  36 WARNINGs and   2 COMMENTs to log file.

--- !FinalSummary
program: abinit
version: 8.4.1
start_datetime: Mon Aug 07 12:32:54 2017
end_datetime: Mon Aug 07 12:33:51 2017
overall_cpu_time:         218.4
overall_wall_time:          56.7
exit_requested_by_user: no 
timelimit: 0
pseudos: 
    C   : 6bf6ca08f4034aa8d90b0c6757b7adb1
usepaw: 0
mpi_procs: 1
omp_threads: 1
num_warnings: 36
num_comments: 2
...
