
.Version 8.4.3 of ABINIT 
.(sequential version, prepared for a x86_64_linux_gnu5.4 computer) 

.Copyright (C) 1998-2017 ABINIT group . 
 ABINIT comes with ABSOLUTELY NO WARRANTY.
 It is free software, and you are welcome to redistribute it
 under certain conditions (GNU General Public License,
 see ~abinit/COPYING or http://www.gnu.org/copyleft/gpl.txt).

 ABINIT is a project of the Universite Catholique de Louvain,
 Corning Inc. and other collaborators, see ~abinit/doc/developers/contributors.txt .
 Please read ~abinit/doc/users/acknowledgments.html for suggested
 acknowledgments of the ABINIT effort.
 For more information, see http://www.abinit.org .

.Starting date : Wed 16 Aug 2017.
- ( at 16h30 )
  
- input  file    -> agnr_5.in
- output file    -> agnr_5.out
- root for input  files -> agnr_5i
- root for output files -> agnr_5o


 DATASET    1 : space group Pm m 2 (# 25); Bravais oP (primitive ortho.)
================================================================================
 Values of the parameters that define the memory need for DATASET  1.
     intxc =       0    ionmov =       0      iscf =       7    lmnmax =       1
     lnmax =       1     mgfft =     162  mpssoang =       2    mqgrid =   10670
     natom =      16  nloc_mem =       1    nspden =       1   nspinor =       1
    nsppol =       1      nsym =       4    n1xccc =    2501    ntypat =       1
    occopt =       1   xclevel =       1
-    mband =          34        mffmem =           1         mkmem =           9
       mpw =       68962          nfft =      524880          nkpt =           9
================================================================================
P This job should need less than                     494.966 Mbytes of memory.
  Rough estimation (10% accuracy) of disk space for files :
_ WF disk file :    321.999 Mbytes ; DEN or POT disk file :      4.007 Mbytes.
================================================================================


 DATASET    2 : space group Pm m 2 (# 25); Bravais oP (primitive ortho.)
================================================================================
 Values of the parameters that define the memory need for DATASET  2.
     intxc =       0    ionmov =       0      iscf =      -2    lmnmax =       1
     lnmax =       1     mgfft =     162  mpssoang =       2    mqgrid =   10670
     natom =      16  nloc_mem =       1    nspden =       1   nspinor =       1
    nsppol =       1      nsym =       4    n1xccc =    2501    ntypat =       1
    occopt =       1   xclevel =       1
-    mband =          40        mffmem =           1         mkmem =          21
       mpw =       68986          nfft =      524880          nkpt =          21
================================================================================
P This job should need less than                    1002.866 Mbytes of memory.
  Rough estimation (10% accuracy) of disk space for files :
_ WF disk file :    884.222 Mbytes ; DEN or POT disk file :      4.007 Mbytes.
================================================================================

--------------------------------------------------------------------------------
------------- Echo of variables that govern the present computation ------------
--------------------------------------------------------------------------------
-
- outvars: echo of selected default values                                      
-   iomode0 =  0 , fftalg0 =112 , wfoptalg0 =  0
-
- outvars: echo of global parameters not present in the input file              
-  max_nthreads =    0
-
 -outvars: echo values of preprocessed input variables --------
            acell      8.0465943961E+00  5.3000000000E+01  3.7777438479E+01 Bohr
              amu      1.20110000E+01
        boxcutmin      1.50000000E+00
           diemac      1.00000000E+01
             ecut      2.00000000E+01 Hartree
           enunit1          0
           enunit2          1
-          fftalg         112
           getden1          0
           getden2         -1
             iscf1          7
             iscf2         -2
           istwfk1       2    0    0    0    0    0    0    0    3
           istwfk2       2    0    0    0    0    0    0    0    0    0
                         0    0    0    0    0    0    0    0    0    0
                         3
           jdtset        1    2
              kpt1     0.00000000E+00  0.00000000E+00  0.00000000E+00
                       6.25000000E-02  0.00000000E+00  0.00000000E+00
                       1.25000000E-01  0.00000000E+00  0.00000000E+00
                       1.87500000E-01  0.00000000E+00  0.00000000E+00
                       2.50000000E-01  0.00000000E+00  0.00000000E+00
                       3.12500000E-01  0.00000000E+00  0.00000000E+00
                       3.75000000E-01  0.00000000E+00  0.00000000E+00
                       4.37500000E-01  0.00000000E+00  0.00000000E+00
                       5.00000000E-01  0.00000000E+00  0.00000000E+00
              kpt2     0.00000000E+00  0.00000000E+00  0.00000000E+00
                       2.50000000E-02  0.00000000E+00  0.00000000E+00
                       5.00000000E-02  0.00000000E+00  0.00000000E+00
                       7.50000000E-02  0.00000000E+00  0.00000000E+00
                       1.00000000E-01  0.00000000E+00  0.00000000E+00
                       1.25000000E-01  0.00000000E+00  0.00000000E+00
                       1.50000000E-01  0.00000000E+00  0.00000000E+00
                       1.75000000E-01  0.00000000E+00  0.00000000E+00
                       2.00000000E-01  0.00000000E+00  0.00000000E+00
                       2.25000000E-01  0.00000000E+00  0.00000000E+00
                       2.50000000E-01  0.00000000E+00  0.00000000E+00
                       2.75000000E-01  0.00000000E+00  0.00000000E+00
                       3.00000000E-01  0.00000000E+00  0.00000000E+00
                       3.25000000E-01  0.00000000E+00  0.00000000E+00
                       3.50000000E-01  0.00000000E+00  0.00000000E+00
                       3.75000000E-01  0.00000000E+00  0.00000000E+00
                       4.00000000E-01  0.00000000E+00  0.00000000E+00
                       4.25000000E-01  0.00000000E+00  0.00000000E+00
                       4.50000000E-01  0.00000000E+00  0.00000000E+00
                       4.75000000E-01  0.00000000E+00  0.00000000E+00
                       5.00000000E-01  0.00000000E+00  0.00000000E+00
           kptopt1          1
           kptopt2         -1
         kptrlatt       16    0    0      0    1    0      0    0    1
          kptrlen1     1.28745510E+02
          kptrlen2     3.00000000E+01
P           mkmem1          9
P           mkmem2         21
            natom          16
            nband1         34
            nband2         40
           nbdbuf1          0
           nbdbuf2          2
           ndtset           2
            ngfft          27     162     120
             nkpt1          9
             nkpt2         21
            nstep          40
             nsym           4
           ntypat           1
              occ      2.000000  2.000000  2.000000  2.000000  2.000000  2.000000
                       2.000000  2.000000  2.000000  2.000000  2.000000  2.000000
                       2.000000  2.000000  2.000000  2.000000  2.000000  2.000000
                       2.000000  2.000000  2.000000  2.000000  2.000000  2.000000
                       2.000000  2.000000  2.000000  2.000000  2.000000  2.000000
                       2.000000  2.000000  0.000000  0.000000
           shiftk1     0.00000000E+00  0.00000000E+00  0.00000000E+00
           shiftk2     5.00000000E-01  5.00000000E-01  5.00000000E-01
          spgroup          25
           symrel      1  0  0   0  1  0   0  0  1      -1  0  0   0  1  0   0  0 -1
                       1  0  0   0  1  0   0  0 -1      -1  0  0   0  1  0   0  0  1
            tnons      0.0000000  0.0000000  0.0000000     0.3333333  0.0000000 -0.0000000
                       0.0000000  0.0000000 -0.0000000     0.3333333  0.0000000  0.0000000
           toldfe1     1.00000000E-06 Hartree
           toldfe2     0.00000000E+00 Hartree
           tolwfr1     0.00000000E+00
           tolwfr2     1.00000000E-12
            typat      1  1  1  1  1  1  1  1  1  1  1  1  1  1  1  1
              wtk1       0.06250    0.12500    0.12500    0.12500    0.12500    0.12500
                         0.12500    0.12500    0.06250
              wtk2       1.00000    1.00000    1.00000    1.00000    1.00000    1.00000
                         1.00000    1.00000    1.00000    1.00000    1.00000    1.00000
                         1.00000    1.00000    1.00000    1.00000    1.00000    1.00000
                         1.00000    1.00000    1.00000
           xangst      8.2043157861E-02  9.6189362538E-02 -3.1418016479E-30
                       2.1451141551E+00  1.2392927615E+00  2.0231805265E-31
                       1.7693839959E-03  2.4638675980E+00  2.0231805265E-31
                       2.1328287017E+00  3.6861221294E+00  2.0231805265E-31
                       3.7766367081E-03  4.9182501816E+00  2.0231805265E-31
                       2.1307894660E+00  6.1405112971E+00  2.0231805265E-31
                       1.6063975716E-02  7.3651424662E+00  2.0231805265E-31
                       2.2108396379E+00  8.5082294504E+00  2.0231805265E-31
                       1.3373149625E+00  9.6189362538E-02  2.0231805265E-31
                      -7.2575603468E-01  1.2392927615E+00  3.0934891077E-31
                       1.4175887364E+00  2.4638675980E+00  2.0231805265E-31
                      -7.1347058130E-01  3.6861221294E+00  2.0231805265E-31
                       1.4155814837E+00  4.9182501816E+00  2.0231805265E-31
                      -7.1143134563E-01  6.1405112971E+00  2.0231805265E-31
                       1.4032941447E+00  7.3651424662E+00  2.0231805265E-31
                      -7.9148151748E-01  8.5082294504E+00  2.0231805265E-31
            xcart      1.5503909943E-01  1.8177155209E-01 -5.9371446784E-30
                       4.0536782769E+00  2.3419239177E+00  3.8232571125E-31
                       3.3436511762E-03  4.6560349879E+00  3.8232571125E-31
                       4.0304621346E+00  6.9657613169E+00  3.8232571125E-31
                       7.1368090817E-03  9.2941458962E+00  3.8232571125E-31
                       4.0266085376E+00  1.1603884667E+01  3.8232571125E-31
                       3.0356514709E-02  1.3918102191E+01  3.8232571125E-31
                       4.1778814394E+00  1.6078223537E+01  3.8232571125E-31
                       2.5271590325E+00  1.8177155209E-01  3.8232571125E-31
                      -1.3714801448E+00  2.3419239177E+00  5.8458472086E-31
                       2.6788544809E+00  4.6560349879E+00  3.8232571125E-31
                      -1.3482640025E+00  6.9657613169E+00  3.8232571125E-31
                       2.6750613230E+00  9.2941458962E+00  3.8232571125E-31
                      -1.3444104056E+00  1.1603884667E+01  3.8232571125E-31
                       2.6518416174E+00  1.3918102191E+01  3.8232571125E-31
                      -1.4956833073E+00  1.6078223537E+01  3.8232571125E-31
             xred      1.9267666767E-02  3.4296519263E-03 -1.5716112361E-31
                       5.0377564437E-01  4.4187243730E-02  1.0120477371E-32
                       4.1553618979E-04  8.7849716753E-02  1.0120477371E-32
                       5.0089043093E-01  1.3142945881E-01  1.0120477371E-32
                       8.8693535804E-04  1.7536124333E-01  1.0120477371E-32
                       5.0041152062E-01  2.1894122014E-01  1.0120477371E-32
                       3.7725916350E-03  2.6260570171E-01  1.0120477371E-32
                       5.1921113874E-01  3.0336270825E-01  1.0120477371E-32
                       3.1406566656E-01  3.4296519263E-03  1.0120477371E-32
                      -1.7044231104E-01  4.4187243730E-02  1.5474440417E-32
                       3.3291779714E-01  8.7849716753E-02  1.0120477371E-32
                      -1.6755709759E-01  1.3142945881E-01  1.0120477371E-32
                       3.3244639798E-01  1.7536124333E-01  1.0120477371E-32
                      -1.6707818729E-01  2.1894122014E-01  1.0120477371E-32
                       3.2956074170E-01  2.6260570171E-01  1.0120477371E-32
                      -1.8587780540E-01  3.0336270825E-01  1.0120477371E-32
            znucl        6.00000

================================================================================

 chkinp: Checking input parameters for consistency, jdtset=   1.

 chkinp: Checking input parameters for consistency, jdtset=   2.

================================================================================
== DATASET  1 ==================================================================
-   nproc =    1

 Exchange-correlation functional for the present dataset will be:
  LDA: new Teter (4/93) with spin-polarized option - ixc=1
 Citation for XC functional:
  S. Goedecker, M. Teter, J. Huetter, PRB 54, 1703 (1996)

 Real(R)+Recip(G) space primitive vectors, cartesian coordinates (Bohr,Bohr^-1):
 R(1)=  8.0465944  0.0000000  0.0000000  G(1)=  0.1242762  0.0000000  0.0000000
 R(2)=  0.0000000 53.0000000  0.0000000  G(2)=  0.0000000  0.0188679  0.0000000
 R(3)=  0.0000000  0.0000000 37.7774385  G(3)=  0.0000000  0.0000000  0.0264708
 Unit cell volume ucvol=  1.6110925E+04 bohr^3
 Angles (23,13,12)=  9.00000000E+01  9.00000000E+01  9.00000000E+01 degrees

 getcut: wavevector=  0.0000  0.0000  0.0000  ngfft=  27 162 120
         ecut(hartree)=     20.000   => boxcut(ratio)=   1.51831

--- Pseudopotential description ------------------------------------------------
- pspini: atom type   1  psp file is ./6c.pspnc
- pspatm: opening atomic psp file    ./6c.pspnc
-  Troullier-Martins psp for element  C         Thu Oct 27 17:29:33 EDT 1994
-  6.00000   4.00000    940714                znucl, zion, pspdat
    1    1    1    1      2001   0.00000      pspcod,pspxc,lmax,lloc,mmax,r2well
    0  10.372  24.987    1   1.4850707        l,e99.0,e99.9,nproj,rcpsp
   0.00000000   0.00000000   0.00000000   0.00000000     rms, ekb1, ekb2, epsatm
    1  15.431  21.987    0   1.4850707        l,e99.0,e99.9,nproj,rcpsp
   0.00000000   0.00000000   0.00000000   0.00000000     rms, ekb1, ekb2, epsatm
    0.83985002509544    0.99012430797080    0.51184907750884   rchrg,fchrg,qchrg
 pspatm: epsatm=    0.92590353
         --- l  ekb(1:nproj) -->
             0    4.921466
 pspatm: atomic psp has been read  and splines computed

   9.48125214E+02                                ecore*ucvol(ha*bohr**3)
--------------------------------------------------------------------------------

_setup2: Arith. and geom. avg. npw (full set) are   68828.063   68827.976

================================================================================

     iter   Etot(hartree)      deltaE(h)  residm     vres2
 ETOT  1  -88.330995833699    -8.833E+01 1.053E-01 1.448E+05
 ETOT  2  -94.970665803038    -6.640E+00 8.634E-02 1.340E+04
 ETOT  3  -96.015336082111    -1.045E+00 5.298E-02 2.509E+03
 ETOT  4  -96.067080358114    -5.174E-02 2.743E-02 2.036E+03
 ETOT  5  -96.106550341639    -3.947E-02 2.906E-02 1.274E+03
 ETOT  6  -96.124200821015    -1.765E-02 1.269E-03 7.146E+02
 ETOT  7  -96.129376048314    -5.175E-03 8.617E-04 4.436E+02
 ETOT  8  -96.131349134240    -1.973E-03 7.880E-04 2.951E+02
 ETOT  9  -96.132473051987    -1.124E-03 6.353E-04 2.050E+02
 ETOT 10  -96.134747299676    -2.274E-03 9.224E-04 2.679E+00
 ETOT 11  -96.134775680485    -2.838E-05 7.402E-04 8.609E-01
 ETOT 12  -96.134798850118    -2.317E-05 5.638E-04 4.851E-01
 ETOT 13  -96.134797968090     8.820E-07 2.970E-04 1.669E-01
 ETOT 14  -96.134802025357    -4.057E-06 2.162E-04 7.433E-02
 ETOT 15  -96.134802834875    -8.095E-07 9.646E-05 2.691E-02
 ETOT 16  -96.134802948438    -1.136E-07 6.942E-05 1.280E-02

 At SCF step   16, etot is converged : 
  for the second time, diff in etot=  1.136E-07 < toldfe=  1.000E-06

 Cartesian components of stress tensor (hartree/bohr^3)
  sigma(1 1)=  2.35997124E-05  sigma(3 2)=  0.00000000E+00
  sigma(2 2)=  3.56881096E-05  sigma(3 1)=  0.00000000E+00
  sigma(3 3)=  3.09069421E-05  sigma(2 1)=  0.00000000E+00

 Integrated electronic density in atomic spheres:
 ------------------------------------------------
 Atom  Sphere_radius  Integrated_density
    1        2.00000          4.56193668
    2        2.00000          4.83337963
    3        2.00000          4.80270060
    4        2.00000          4.81499316
    5        2.00000          4.84196867
    6        2.00000          4.79017959
    7        2.00000          4.84855754
    8        2.00000          4.54258415
    9        2.00000          4.56193668
   10        2.00000          4.83337963
   11        2.00000          4.80270060
   12        2.00000          4.81499316
   13        2.00000          4.84196867
   14        2.00000          4.79017959
   15        2.00000          4.84855754
   16        2.00000          4.54258415
================================================================================

 ----iterations are completed or convergence reached----

 Mean square residual over all n,k,spin=   3.4435E-07; max=  6.9424E-05
 reduced coordinates (array xred) for   16 atoms
       0.019267666767      0.003429651926      0.000000000000
       0.503775644368      0.044187243730      0.000000000000
       0.000415536186      0.087849716753      0.000000000000
       0.500890430924      0.131429458810      0.000000000000
       0.000886935353      0.175361243325      0.000000000000
       0.500411520621      0.218941220140      0.000000000000
       0.003772591628      0.262605701713      0.000000000000
       0.519211138731      0.303362708245      0.000000000000
       0.314065666558      0.003429651926      0.000000000000
      -0.170442311042      0.044187243730      0.000000000000
       0.332917797140      0.087849716753      0.000000000000
      -0.167557097599      0.131429458810      0.000000000000
       0.332446397973      0.175361243325      0.000000000000
      -0.167078187295      0.218941220140      0.000000000000
       0.329560741697      0.262605701713      0.000000000000
      -0.185877805405      0.303362708245      0.000000000000
 rms dE/dt=  1.9434E-01; max dE/dt=  4.7675E-01; dE/dt below (all hartree)
    1      -0.289424133666     -0.329907125971      0.000000000000
    2      -0.003289891081      0.476753603924      0.000000000000
    3      -0.022946026685     -0.020829610437      0.000000000000
    4       0.004817404510     -0.181972900676      0.000000000000
    5       0.004568539949      0.185777385914      0.000000000000
    6      -0.023418798433      0.022895972100      0.000000000000
    7      -0.003498908759     -0.471113649250      0.000000000000
    8      -0.295418647610      0.328048655596      0.000000000000
    9       0.289424133666     -0.329907125971      0.000000000000
   10       0.003289891081      0.476753603924      0.000000000000
   11       0.022946026685     -0.020829610437      0.000000000000
   12      -0.004817404510     -0.181972900676      0.000000000000
   13      -0.004568539949      0.185777385914      0.000000000000
   14       0.023418798433      0.022895972100      0.000000000000
   15       0.003498908759     -0.471113649250      0.000000000000
   16       0.295418647610      0.328048655596      0.000000000000

 cartesian coordinates (angstrom) at end:
    1      0.08204315786100     0.09618936253800     0.00000000000000
    2      2.14511415507050     1.23929276150000     0.00000000000000
    3      0.00176938397845     2.46386759800000     0.00000000000000
    4      2.13282870168050     3.68612212940000     0.00000000000000
    5      0.00377663668455     4.91825018160000     0.00000000000000
    6      2.13078946599550     6.14051129710000     0.00000000000000
    7      0.01606397568850     7.36514246620000     0.00000000000000
    8      2.21083963787050     8.50822945040000     0.00000000000000
    9      1.33731496250000     0.09618936253800     0.00000000000000
   10     -0.72575603470950     1.23929276150000     0.00000000000000
   11      1.41758873638255     2.46386759800000     0.00000000000000
   12     -0.71347058131950     3.68612212940000     0.00000000000000
   13      1.41558148367645     4.91825018160000     0.00000000000000
   14     -0.71143134563450     6.14051129710000     0.00000000000000
   15      1.40329414467250     7.36514246620000     0.00000000000000
   16     -0.79148151750950     8.50822945040000     0.00000000000000

 cartesian forces (hartree/bohr) at end:
    1      0.03596852524424     0.00624742768624    -0.00000000000000
    2      0.00040885509064    -0.00897258608536    -0.00000000000000
    3      0.00285164450394     0.00041577644976    -0.00000000000000
    4     -0.00059868862194     0.00345621588823    -0.00000000000000
    5     -0.00056776068530    -0.00348246876442    -0.00000000000000
    6      0.00291039876993    -0.00040923454152    -0.00000000000000
    7      0.00043483100878     0.00891170171038    -0.00000000000000
    8      0.03671350052797    -0.00616683234332    -0.00000000000000
    9     -0.03596852524424     0.00624742768624    -0.00000000000000
   10     -0.00040885509064    -0.00897258608536    -0.00000000000000
   11     -0.00285164450394     0.00041577644976    -0.00000000000000
   12      0.00059868862194     0.00345621588823    -0.00000000000000
   13      0.00056776068530    -0.00348246876442    -0.00000000000000
   14     -0.00291039876993    -0.00040923454152    -0.00000000000000
   15     -0.00043483100878     0.00891170171038    -0.00000000000000
   16     -0.03671350052797    -0.00616683234332    -0.00000000000000
 frms,max,avg= 1.1031498E-02 3.6713501E-02   0.000E+00 -2.276E-05  0.000E+00 h/b

 cartesian forces (eV/Angstrom) at end:
    1      1.84957577804025     0.32125562127072    -0.00000000000000
    2      0.02102417230722    -0.46138888867890    -0.00000000000000
    3      0.14663744388333     0.02138008287358    -0.00000000000000
    4     -0.03078580414973     0.17772575181063    -0.00000000000000
    5     -0.02919542583751    -0.17907572886877    -0.00000000000000
    6      0.14965870946193    -0.02104368445436    -0.00000000000000
    7      0.02235990761143     0.45825808850123    -0.00000000000000
    8      1.88788394415716    -0.31711124245412    -0.00000000000000
    9     -1.84957577804025     0.32125562127072    -0.00000000000000
   10     -0.02102417230722    -0.46138888867890    -0.00000000000000
   11     -0.14663744388333     0.02138008287358    -0.00000000000000
   12      0.03078580414973     0.17772575181063    -0.00000000000000
   13      0.02919542583751    -0.17907572886877    -0.00000000000000
   14     -0.14965870946193    -0.02104368445436    -0.00000000000000
   15     -0.02235990761143     0.45825808850123    -0.00000000000000
   16     -1.88788394415716    -0.31711124245412    -0.00000000000000
 frms,max,avg= 5.6726236E-01 1.8878839E+00   0.000E+00 -1.171E-03  0.000E+00 e/A
 length scales=  8.046594396100 53.000000000000 37.777438479000 bohr
              =  4.258074361184 28.046392055270 19.990959441998 angstroms
 prteigrs : about to open file agnr_5o_DS1_EIG
 Fermi (or HOMO) energy (hartree) =  -0.16589   Average Vxc (hartree)=  -0.03685
 Eigenvalues (hartree) for nkpt=   9  k points:
 kpt#   1, nband= 34, wtk=  0.06250, kpt=  0.0000  0.0000  0.0000 (reduced coord)
  -0.86621   -0.84229   -0.79689   -0.73549   -0.67123   -0.66836   -0.65004   -0.64519
  -0.62668   -0.62078   -0.60793   -0.54887   -0.52173   -0.52163   -0.47187   -0.46620
  -0.45447   -0.43310   -0.41095   -0.40599   -0.38955   -0.37138   -0.35884   -0.30986
  -0.30889   -0.29601   -0.24766   -0.24156   -0.23321   -0.22544   -0.19972   -0.16589
  -0.14392   -0.12403
 prteigrs : prtvol=0 or 1, do not print more k-points.


--------------------------------------------------------------------------------
 Components of total free energy (in Hartree) :

    Kinetic energy  =  6.56168112723960E+01
    Hartree energy  =  4.99508940164689E+02
    XC energy       = -3.39553507448127E+01
    Ewald energy    =  4.30942971657629E+02
    PspCore energy  =  5.88498295456952E-02
    Loc. psp. energy= -1.06932391245457E+03
    NL   psp  energy=  1.10168873266860E+01
    >>>>>>>>> Etotal= -9.61348029484377E+01

 Other information on the energy :
    Total energy(eV)= -2.61596102533540E+03 ; Band energy (Ha)=  -3.0845987485E+01
--------------------------------------------------------------------------------

 Cartesian components of stress tensor (hartree/bohr^3)
  sigma(1 1)=  2.35997124E-05  sigma(3 2)=  0.00000000E+00
  sigma(2 2)=  3.56881096E-05  sigma(3 1)=  0.00000000E+00
  sigma(3 3)=  3.09069421E-05  sigma(2 1)=  0.00000000E+00

-Cartesian components of stress tensor (GPa)         [Pressure= -8.8454E-01 GPa]
- sigma(1 1)=  6.94327393E-01  sigma(3 2)=  0.00000000E+00
- sigma(2 2)=  1.04998026E+00  sigma(3 1)=  0.00000000E+00
- sigma(3 3)=  9.09313478E-01  sigma(2 1)=  0.00000000E+00

================================================================================
== DATASET  2 ==================================================================
-   nproc =    1

 mkfilename : getden/=0, take file _DEN from output of DATASET   1.

 Exchange-correlation functional for the present dataset will be:
  LDA: new Teter (4/93) with spin-polarized option - ixc=1
 Citation for XC functional:
  S. Goedecker, M. Teter, J. Huetter, PRB 54, 1703 (1996)

 Real(R)+Recip(G) space primitive vectors, cartesian coordinates (Bohr,Bohr^-1):
 R(1)=  8.0465944  0.0000000  0.0000000  G(1)=  0.1242762  0.0000000  0.0000000
 R(2)=  0.0000000 53.0000000  0.0000000  G(2)=  0.0000000  0.0188679  0.0000000
 R(3)=  0.0000000  0.0000000 37.7774385  G(3)=  0.0000000  0.0000000  0.0264708
 Unit cell volume ucvol=  1.6110925E+04 bohr^3
 Angles (23,13,12)=  9.00000000E+01  9.00000000E+01  9.00000000E+01 degrees

 getcut: wavevector=  0.0000  0.0000  0.0000  ngfft=  27 162 120
         ecut(hartree)=     20.000   => boxcut(ratio)=   1.51831
--------------------------------------------------------------------------------


================================================================================
 prteigrs : about to open file agnr_5o_DS2_EIG
 Non-SCF case, kpt    1 (  0.00000  0.00000  0.00000), residuals and eigenvalues=
  7.52E-13  8.67E-13  7.23E-13  8.19E-13  8.25E-13  6.14E-13  6.45E-13  8.23E-13
  6.86E-13  5.82E-13  3.16E-13  4.94E-13  2.97E-13  8.86E-13  5.76E-13  7.51E-13
  4.98E-13  7.92E-13  5.81E-13  6.34E-13  6.00E-13  7.18E-13  5.15E-13  4.50E-13
  7.35E-13  5.38E-13  4.60E-13  1.82E-13  4.13E-13  6.35E-13  4.60E-13  2.11E-13
  8.08E-13  4.61E-13  4.08E-13  4.96E-13  9.98E-13  6.05E-13  5.51E-13  1.53E-10
 -8.6639E-01 -8.4248E-01 -7.9705E-01 -7.3562E-01 -6.7142E-01 -6.6848E-01
 -6.5024E-01 -6.4537E-01 -6.2688E-01 -6.2093E-01 -6.0811E-01 -5.4903E-01
 -5.2191E-01 -5.2178E-01 -4.7204E-01 -4.6635E-01 -4.5464E-01 -4.3328E-01
 -4.1112E-01 -4.0617E-01 -3.8973E-01 -3.7154E-01 -3.5899E-01 -3.1003E-01
 -3.0904E-01 -2.9613E-01 -2.4776E-01 -2.4166E-01 -2.3339E-01 -2.2556E-01
 -1.9991E-01 -1.6605E-01 -1.4410E-01 -1.2466E-01 -1.0674E-01 -1.0477E-01
 -1.0121E-01 -7.0926E-02 -1.8445E-02  5.9601E-03
  prteigrs : nnsclo,ikpt=   40    1 max resid (incl. the buffer)=  1.53467E-10
 Non-SCF case, kpt    2 (  0.02500  0.00000  0.00000), residuals and eigenvalues=
  8.94E-13  7.67E-13  6.85E-13  6.71E-13  4.74E-13  4.16E-13  7.41E-13  5.75E-13
  6.71E-13  6.17E-13  8.88E-13  5.91E-13  2.85E-13  1.75E-13  8.40E-13  7.15E-13
  6.45E-13  2.45E-13  9.29E-13  5.15E-13  4.71E-13  1.18E-13  5.08E-13  7.13E-13
  6.94E-13  2.08E-13  6.78E-13  9.32E-13  2.29E-13  3.71E-13  3.66E-13  3.68E-13
  9.53E-13  8.29E-13  5.81E-13  5.78E-13  8.39E-13  7.10E-13  9.97E-12  1.03E-10
 -8.6625E-01 -8.4235E-01 -7.9692E-01 -7.3552E-01 -6.7446E-01 -6.6892E-01
 -6.5259E-01 -6.4260E-01 -6.2398E-01 -6.2301E-01 -6.0596E-01 -5.5065E-01
 -5.2141E-01 -5.2021E-01 -4.7551E-01 -4.6298E-01 -4.5444E-01 -4.3310E-01
 -4.1167E-01 -4.0601E-01 -3.8933E-01 -3.7161E-01 -3.5886E-01 -3.1019E-01
 -3.0923E-01 -2.9604E-01 -2.4778E-01 -2.4181E-01 -2.3442E-01 -2.2563E-01
 -2.0134E-01 -1.6860E-01 -1.4161E-01 -1.2317E-01 -1.0705E-01 -1.0358E-01
 -1.0153E-01 -7.1017E-02 -1.8261E-02  6.1515E-03
  prteigrs : nnsclo,ikpt=   40    2 max resid (incl. the buffer)=  1.03158E-10
 Non-SCF case, kpt    3 (  0.05000  0.00000  0.00000), residuals and eigenvalues=
  6.96E-13  6.09E-13  5.04E-13  6.17E-13  8.49E-13  4.95E-13  7.02E-13  9.32E-13
  4.27E-13  9.54E-13  1.50E-13  7.30E-13  2.77E-13  2.14E-13  6.83E-13  4.90E-13
  3.85E-13  3.48E-13  8.49E-13  5.25E-13  9.44E-13  4.84E-13  4.76E-13  5.41E-13
  2.82E-13  7.54E-13  4.32E-13  6.70E-13  3.70E-13  6.51E-13  6.47E-13  5.16E-13
  2.71E-13  9.17E-13  4.08E-13  8.92E-13  4.18E-13  9.53E-13  5.34E-11  5.80E-11
 -8.6585E-01 -8.4195E-01 -7.9654E-01 -7.3521E-01 -6.8119E-01 -6.7067E-01
 -6.5701E-01 -6.3794E-01 -6.2571E-01 -6.1742E-01 -6.0168E-01 -5.5468E-01
 -5.1989E-01 -5.1631E-01 -4.8090E-01 -4.5795E-01 -4.5383E-01 -4.3260E-01
 -4.1318E-01 -4.0552E-01 -3.8826E-01 -3.7184E-01 -3.5842E-01 -3.1077E-01
 -3.0985E-01 -2.9571E-01 -2.4790E-01 -2.4219E-01 -2.3737E-01 -2.2588E-01
 -2.0529E-01 -1.7430E-01 -1.3603E-01 -1.1896E-01 -1.0801E-01 -1.0255E-01
 -1.0010E-01 -7.1297E-02 -1.7710E-02  6.7238E-03
  prteigrs : nnsclo,ikpt=   40    3 max resid (incl. the buffer)=  5.80050E-11
 Non-SCF case, kpt    4 (  0.07500  0.00000  0.00000), residuals and eigenvalues=
  8.76E-13  6.47E-13  7.48E-13  4.19E-13  6.20E-13  4.03E-13  5.41E-13  2.90E-13
  4.80E-13  8.73E-13  5.34E-13  7.69E-13  5.54E-13  7.21E-13  9.34E-13  5.54E-13
  5.00E-13  7.68E-13  5.23E-13  3.09E-13  2.43E-13  1.28E-13  4.70E-13  7.50E-13
  5.34E-13  4.09E-13  9.09E-13  1.99E-13  8.95E-13  6.91E-13  7.42E-13  4.69E-13
  3.55E-13  2.72E-13  5.26E-13  4.52E-13  3.56E-13  6.10E-13  1.30E-10  8.49E-11
 -8.6518E-01 -8.4129E-01 -7.9591E-01 -7.3471E-01 -6.8916E-01 -6.7474E-01
 -6.6023E-01 -6.3904E-01 -6.2203E-01 -6.0950E-01 -5.9705E-01 -5.5983E-01
 -5.1740E-01 -5.1133E-01 -4.8642E-01 -4.5294E-01 -4.5280E-01 -4.3179E-01
 -4.1532E-01 -4.0473E-01 -3.8678E-01 -3.7220E-01 -3.5768E-01 -3.1168E-01
 -3.1087E-01 -2.9515E-01 -2.4806E-01 -2.4274E-01 -2.4194E-01 -2.2630E-01
 -2.1100E-01 -1.8117E-01 -1.2936E-01 -1.1275E-01 -1.0955E-01 -1.0416E-01
 -9.4599E-02 -7.1709E-02 -1.6791E-02  7.6753E-03
  prteigrs : nnsclo,ikpt=   40    4 max resid (incl. the buffer)=  1.30195E-10
 Non-SCF case, kpt    5 (  0.10000  0.00000  0.00000), residuals and eigenvalues=
  7.33E-13  6.61E-13  8.36E-13  8.76E-13  7.04E-13  8.28E-13  9.58E-13  1.99E-13
  6.15E-13  6.47E-13  9.55E-13  3.89E-13  3.63E-13  3.85E-13  4.39E-13  3.43E-13
  6.18E-13  6.44E-13  3.97E-13  3.79E-13  4.99E-13  1.13E-13  2.70E-13  2.32E-13
  5.92E-13  5.07E-13  7.75E-13  4.50E-13  8.05E-13  6.48E-13  6.05E-13  8.77E-13
  6.93E-13  3.89E-13  9.51E-13  3.36E-13  8.78E-13  5.02E-13  1.07E-10  1.56E-09
 -8.6423E-01 -8.4037E-01 -7.9503E-01 -7.3403E-01 -6.9747E-01 -6.8098E-01
 -6.6162E-01 -6.4446E-01 -6.1386E-01 -6.0113E-01 -5.9252E-01 -5.6532E-01
 -5.1415E-01 -5.0605E-01 -4.9179E-01 -4.5140E-01 -4.4821E-01 -4.3064E-01
 -4.1780E-01 -4.0360E-01 -3.8518E-01 -3.7275E-01 -3.5663E-01 -3.1293E-01
 -3.1241E-01 -2.9437E-01 -2.4830E-01 -2.4780E-01 -2.4347E-01 -2.2714E-01
 -2.1766E-01 -1.8850E-01 -1.2235E-01 -1.1165E-01 -1.0635E-01 -1.0529E-01
 -8.7470E-02 -7.2166E-02 -1.5506E-02  9.0034E-03
  prteigrs : nnsclo,ikpt=   40    5 max resid (incl. the buffer)=  1.56369E-09
 Non-SCF case, kpt    6 (  0.12500  0.00000  0.00000), residuals and eigenvalues=
  9.12E-13  7.89E-13  4.86E-13  5.22E-13  5.22E-13  4.76E-13  8.99E-13  9.30E-13
  8.59E-13  9.07E-13  6.75E-13  7.87E-13  5.53E-13  4.18E-13  6.50E-13  5.79E-13
  4.58E-13  6.52E-13  6.08E-13  4.38E-13  9.20E-13  5.60E-13  5.70E-13  2.49E-13
  9.12E-13  3.91E-13  3.59E-13  8.06E-13  3.56E-13  2.56E-13  5.34E-13  4.57E-13
  2.24E-13  5.54E-13  9.99E-13  5.32E-13  8.82E-13  7.26E-13  3.29E-10  1.91E-11
 -8.6302E-01 -8.3919E-01 -7.9390E-01 -7.3323E-01 -7.0575E-01 -6.8823E-01
 -6.6204E-01 -6.5086E-01 -6.0479E-01 -5.9288E-01 -5.8807E-01 -5.7055E-01
 -5.1067E-01 -5.0089E-01 -4.9642E-01 -4.4966E-01 -4.4385E-01 -4.2917E-01
 -4.2030E-01 -4.0216E-01 -3.8364E-01 -3.7351E-01 -3.5530E-01 -3.1461E-01
 -3.1453E-01 -2.9339E-01 -2.5456E-01 -2.4866E-01 -2.4431E-01 -2.2949E-01
 -2.2368E-01 -1.9603E-01 -1.1521E-01 -1.1425E-01 -1.0906E-01 -9.7203E-02
 -7.9033E-02 -7.2387E-02 -1.3854E-02  1.0702E-02
  prteigrs : nnsclo,ikpt=   40    6 max resid (incl. the buffer)=  3.28864E-10
 Non-SCF case, kpt    7 (  0.15000  0.00000  0.00000), residuals and eigenvalues=
  9.70E-13  5.78E-13  5.57E-13  7.63E-13  2.62E-13  6.85E-13  4.36E-13  5.68E-13
  2.54E-13  3.06E-13  4.81E-13  4.42E-13  1.61E-13  8.76E-13  2.74E-13  4.94E-13
  5.72E-13  3.13E-13  6.98E-13  4.20E-13  3.69E-13  5.18E-13  4.80E-13  3.61E-13
  5.31E-13  4.64E-13  5.50E-13  5.71E-13  5.58E-13  4.26E-13  5.67E-13  5.33E-13
  9.07E-13  9.45E-13  8.44E-13  6.27E-13  7.46E-13  7.16E-13  1.20E-10  1.59E-08
 -8.6154E-01 -8.3774E-01 -7.9253E-01 -7.3248E-01 -7.1370E-01 -6.9583E-01
 -6.6208E-01 -6.5755E-01 -5.9602E-01 -5.8634E-01 -5.8325E-01 -5.7384E-01
 -5.0913E-01 -4.9816E-01 -4.9605E-01 -4.4763E-01 -4.3993E-01 -4.2736E-01
 -4.2255E-01 -4.0040E-01 -3.8226E-01 -3.7442E-01 -3.5367E-01 -3.1750E-01
 -3.1640E-01 -2.9222E-01 -2.6196E-01 -2.4910E-01 -2.4518E-01 -2.3571E-01
 -2.2640E-01 -2.0362E-01 -1.1724E-01 -1.1219E-01 -1.0810E-01 -8.9366E-02
 -7.1819E-02 -6.9598E-02 -1.1835E-02  1.2769E-02
  prteigrs : nnsclo,ikpt=   40    7 max resid (incl. the buffer)=  1.59146E-08
 Non-SCF case, kpt    8 (  0.17500  0.00000  0.00000), residuals and eigenvalues=
  9.89E-13  8.63E-13  6.86E-13  2.60E-13  2.80E-13  5.89E-13  5.43E-13  4.65E-13
  7.74E-13  4.35E-13  4.01E-13  1.58E-13  2.58E-13  3.95E-13  7.89E-13  3.25E-13
  5.37E-13  4.47E-13  7.19E-13  3.26E-13  5.94E-13  7.88E-13  2.77E-13  5.07E-13
  4.93E-13  7.44E-13  6.27E-13  1.63E-13  1.62E-13  3.40E-13  6.17E-13  8.47E-13
  8.20E-13  8.17E-13  2.75E-13  9.58E-13  4.68E-13  4.60E-13  1.29E-10  5.82E-08
 -8.5979E-01 -8.3603E-01 -7.9091E-01 -7.3237E-01 -7.2069E-01 -7.0350E-01
 -6.6430E-01 -6.6199E-01 -5.8893E-01 -5.8627E-01 -5.7691E-01 -5.7045E-01
 -5.1183E-01 -4.9480E-01 -4.9176E-01 -4.4547E-01 -4.3653E-01 -4.2525E-01
 -4.2418E-01 -3.9832E-01 -3.8112E-01 -3.7546E-01 -3.5174E-01 -3.2102E-01
 -3.1856E-01 -2.9089E-01 -2.6973E-01 -2.4958E-01 -2.4599E-01 -2.4368E-01
 -2.2775E-01 -2.1123E-01 -1.2054E-01 -1.1567E-01 -1.0106E-01 -8.3511E-02
 -6.8853E-02 -5.9406E-02 -9.4508E-03  1.5201E-02
  prteigrs : nnsclo,ikpt=   40    8 max resid (incl. the buffer)=  5.82162E-08
 Non-SCF case, kpt    9 (  0.20000  0.00000  0.00000), residuals and eigenvalues=
  7.65E-13  6.69E-13  5.09E-13  2.20E-13  7.99E-13  6.49E-13  3.86E-13  4.31E-13
  7.69E-13  6.44E-13  3.98E-13  4.48E-13  8.33E-13  3.47E-13  4.61E-13  3.39E-13
  1.80E-13  3.60E-13  7.08E-13  4.63E-13  5.94E-13  2.86E-13  6.40E-13  8.39E-13
  7.42E-13  4.94E-13  5.59E-13  5.27E-13  2.47E-13  6.51E-13  3.77E-13  7.44E-13
  3.10E-13  6.63E-13  4.92E-13  5.80E-13  7.22E-13  7.99E-13  4.57E-11  1.86E-04
 -8.5777E-01 -8.3406E-01 -7.8905E-01 -7.3509E-01 -7.2450E-01 -7.1111E-01
 -6.7104E-01 -6.6193E-01 -5.9019E-01 -5.8436E-01 -5.6831E-01 -5.6280E-01
 -5.1607E-01 -4.8901E-01 -4.8816E-01 -4.4339E-01 -4.3374E-01 -4.2480E-01
 -4.2280E-01 -3.9593E-01 -3.8029E-01 -3.7664E-01 -3.4954E-01 -3.2534E-01
 -3.2106E-01 -2.8952E-01 -2.7759E-01 -2.5202E-01 -2.5010E-01 -2.4673E-01
 -2.2900E-01 -2.1879E-01 -1.2408E-01 -1.1939E-01 -9.4150E-02 -8.1045E-02
 -6.2183E-02 -4.8701E-02 -6.7002E-03  4.6052E-05
  prteigrs : nnsclo,ikpt=   40    9 max resid (incl. the buffer)=  1.85634E-04
 Non-SCF case, kpt   10 (  0.22500  0.00000  0.00000), residuals and eigenvalues=
  5.97E-13  9.52E-13  5.50E-13  8.81E-13  4.02E-13  9.66E-13  4.57E-13  8.44E-13
  6.59E-13  4.86E-13  4.78E-13  4.11E-13  5.67E-13  7.38E-13  3.29E-13  4.78E-13
  3.98E-13  7.40E-13  8.35E-13  2.58E-13  9.63E-13  6.09E-13  5.81E-13  5.81E-13
  6.16E-13  5.81E-13  4.37E-13  8.38E-13  7.42E-13  9.09E-13  8.70E-13  2.80E-13
  2.12E-13  8.17E-13  5.50E-13  3.86E-13  3.38E-13  7.02E-13  4.58E-07  7.48E-12
 -8.5548E-01 -8.3184E-01 -7.8696E-01 -7.4123E-01 -7.2452E-01 -7.1859E-01
 -6.7767E-01 -6.6202E-01 -5.9448E-01 -5.8146E-01 -5.5838E-01 -5.5450E-01
 -5.2037E-01 -4.8537E-01 -4.8232E-01 -4.4162E-01 -4.3161E-01 -4.2406E-01
 -4.2003E-01 -3.9322E-01 -3.7984E-01 -3.7790E-01 -3.4701E-01 -3.3030E-01
 -3.2385E-01 -2.8921E-01 -2.8427E-01 -2.6042E-01 -2.5057E-01 -2.4734E-01
 -2.3033E-01 -2.2628E-01 -1.2776E-01 -1.2327E-01 -8.7375E-02 -8.0419E-02
 -5.3376E-02 -3.7691E-02 -4.9125E-03 -3.5832E-03
  prteigrs : nnsclo,ikpt=   40   10 max resid (incl. the buffer)=  4.58425E-07
 Non-SCF case, kpt   11 (  0.25000  0.00000  0.00000), residuals and eigenvalues=
  7.77E-13  5.12E-13  4.80E-13  4.98E-13  2.76E-13  4.06E-13  9.36E-13  4.32E-13
  5.71E-13  3.78E-13  2.91E-13  2.33E-13  3.78E-13  7.11E-13  5.15E-13  5.28E-13
  6.10E-13  6.96E-13  8.86E-13  7.32E-13  5.35E-13  8.20E-13  2.82E-13  2.20E-13
  5.15E-13  4.08E-13  5.65E-13  4.59E-13  8.01E-13  3.11E-13  4.33E-13  6.66E-13
  4.67E-13  5.28E-13  9.28E-13  4.71E-13  7.73E-13  4.22E-13  3.14E-10  6.27E-13
 -8.5293E-01 -8.2935E-01 -7.8464E-01 -7.4839E-01 -7.2590E-01 -7.2321E-01
 -6.8413E-01 -6.6237E-01 -5.9841E-01 -5.7959E-01 -5.4779E-01 -5.4627E-01
 -5.2427E-01 -4.8343E-01 -4.7519E-01 -4.4007E-01 -4.3022E-01 -4.2197E-01
 -4.1694E-01 -3.9019E-01 -3.7980E-01 -3.7920E-01 -3.4422E-01 -3.3599E-01
 -3.2698E-01 -2.9516E-01 -2.8458E-01 -2.6878E-01 -2.5099E-01 -2.4787E-01
 -2.3369E-01 -2.3185E-01 -1.3149E-01 -1.2724E-01 -8.0841E-02 -8.0300E-02
 -4.3816E-02 -2.6836E-02 -8.3772E-03 -1.0090E-04
  prteigrs : nnsclo,ikpt=   40   11 max resid (incl. the buffer)=  3.13773E-10
 Non-SCF case, kpt   12 (  0.27500  0.00000  0.00000), residuals and eigenvalues=
  5.50E-13  5.50E-13  3.72E-13  3.53E-13  5.05E-13  3.49E-13  4.89E-13  7.39E-13
  2.90E-13  3.60E-13  8.65E-14  6.94E-13  1.60E-13  8.62E-13  7.78E-13  5.95E-13
  9.51E-13  8.36E-13  4.23E-13  3.36E-13  4.19E-13  4.51E-13  6.11E-13  6.21E-13
  6.80E-13  6.26E-13  5.82E-13  4.55E-13  8.34E-13  6.06E-13  6.44E-13  4.67E-13
  5.61E-13  4.47E-13  7.40E-13  4.19E-13  5.18E-13  7.84E-13  2.48E-10  9.78E-13
 -8.5011E-01 -8.2661E-01 -7.8213E-01 -7.5566E-01 -7.3300E-01 -7.2154E-01
 -6.9029E-01 -6.6311E-01 -6.0170E-01 -5.7855E-01 -5.3845E-01 -5.3703E-01
 -5.2747E-01 -4.8220E-01 -4.6776E-01 -4.3841E-01 -4.2961E-01 -4.1887E-01
 -4.1352E-01 -3.8684E-01 -3.8055E-01 -3.8026E-01 -3.4221E-01 -3.4113E-01
 -3.3049E-01 -3.0308E-01 -2.8274E-01 -2.7707E-01 -2.5134E-01 -2.4827E-01
 -2.4097E-01 -2.3356E-01 -1.3516E-01 -1.3118E-01 -8.0186E-02 -7.4614E-02
 -3.3994E-02 -1.9040E-02 -8.3569E-03  3.7475E-03
  prteigrs : nnsclo,ikpt=   40   12 max resid (incl. the buffer)=  2.47714E-10
 Non-SCF case, kpt   13 (  0.30000  0.00000  0.00000), residuals and eigenvalues=
  5.56E-13  4.87E-13  7.82E-13  5.01E-13  3.41E-13  4.26E-13  6.73E-13  4.90E-13
  1.16E-13  1.90E-13  5.80E-13  8.47E-13  3.63E-13  6.03E-13  1.97E-13  8.97E-13
  7.56E-13  3.98E-13  7.28E-13  5.73E-13  6.12E-13  6.37E-13  6.15E-13  3.80E-13
  4.35E-13  4.59E-13  6.01E-13  5.50E-13  4.15E-13  5.45E-13  5.13E-13  1.52E-13
  8.59E-13  2.67E-13  6.18E-13  3.27E-13  6.65E-13  9.69E-13  1.53E-07  7.47E-11
 -8.4703E-01 -8.2362E-01 -7.7944E-01 -7.6284E-01 -7.3982E-01 -7.1992E-01
 -6.9594E-01 -6.6431E-01 -6.0420E-01 -5.7832E-01 -5.3131E-01 -5.3030E-01
 -5.2567E-01 -4.8145E-01 -4.6019E-01 -4.3638E-01 -4.2978E-01 -4.1521E-01
 -4.0979E-01 -3.8318E-01 -3.8190E-01 -3.8125E-01 -3.4885E-01 -3.3779E-01
 -3.3431E-01 -3.1110E-01 -2.8517E-01 -2.8060E-01 -2.5154E-01 -2.4860E-01
 -2.4804E-01 -2.3547E-01 -1.3870E-01 -1.3499E-01 -7.9897E-02 -6.8860E-02
 -2.4179E-02 -1.9427E-02  3.7453E-04  7.9614E-03
  prteigrs : nnsclo,ikpt=   40   13 max resid (incl. the buffer)=  1.52610E-07
 Non-SCF case, kpt   14 (  0.32500  0.00000  0.00000), residuals and eigenvalues=
  7.23E-13  6.54E-13  7.11E-13  7.76E-13  8.35E-13  2.85E-13  6.54E-13  4.75E-13
  4.19E-13  3.28E-13  9.50E-13  6.13E-13  7.36E-13  5.56E-13  4.25E-13  2.24E-13
  2.76E-13  2.74E-13  6.88E-13  5.66E-13  6.00E-13  6.02E-13  1.40E-13  7.42E-13
  3.94E-13  3.87E-13  4.03E-13  5.83E-13  8.02E-13  6.35E-13  2.51E-13  6.29E-13
  7.02E-13  2.39E-13  4.69E-13  6.98E-13  8.51E-13  6.23E-13  7.84E-06  3.44E-08
 -8.4369E-01 -8.2038E-01 -7.7667E-01 -7.6984E-01 -7.4630E-01 -7.1888E-01
 -7.0059E-01 -6.6604E-01 -6.0584E-01 -5.7893E-01 -5.3166E-01 -5.2519E-01
 -5.1475E-01 -4.8075E-01 -4.5256E-01 -4.3380E-01 -4.3074E-01 -4.1142E-01
 -4.0578E-01 -3.8334E-01 -3.8287E-01 -3.7923E-01 -3.5574E-01 -3.3851E-01
 -3.3421E-01 -3.1903E-01 -2.9306E-01 -2.7839E-01 -2.5483E-01 -2.5163E-01
 -2.4886E-01 -2.3758E-01 -1.4203E-01 -1.3865E-01 -7.9316E-02 -6.3827E-02
 -2.1720E-02 -1.4488E-02  1.1902E-02  1.2540E-02
  prteigrs : nnsclo,ikpt=   40   14 max resid (incl. the buffer)=  7.83785E-06
 Non-SCF case, kpt   15 (  0.35000  0.00000  0.00000), residuals and eigenvalues=
  8.20E-13  5.59E-13  9.82E-13  8.12E-13  8.03E-13  6.36E-13  7.81E-13  3.80E-13
  2.77E-13  2.46E-13  2.23E-13  5.01E-13  4.89E-13  6.02E-13  5.38E-13  7.16E-13
  9.13E-13  2.54E-13  8.38E-13  8.30E-13  7.56E-13  7.53E-13  7.87E-13  9.21E-13
  8.43E-13  2.07E-13  2.28E-13  4.67E-13  5.25E-13  3.03E-13  2.55E-13  5.58E-13
  9.24E-13  4.55E-13  6.43E-13  6.86E-13  7.49E-13  6.51E-13  1.20E-10  1.44E-04
 -8.4008E-01 -8.1691E-01 -7.7664E-01 -7.7400E-01 -7.5223E-01 -7.1943E-01
 -7.0327E-01 -6.6830E-01 -6.0660E-01 -5.8034E-01 -5.3222E-01 -5.2052E-01
 -5.0368E-01 -4.7953E-01 -4.4499E-01 -4.3243E-01 -4.3076E-01 -4.0796E-01
 -4.0142E-01 -3.8508E-01 -3.8492E-01 -3.7497E-01 -3.6245E-01 -3.4296E-01
 -3.3041E-01 -3.2685E-01 -3.0070E-01 -2.7637E-01 -2.6116E-01 -2.5158E-01
 -2.4909E-01 -2.3989E-01 -1.4504E-01 -1.4205E-01 -7.8427E-02 -5.9983E-02
 -2.3231E-02 -5.1709E-03  1.7483E-02  2.4460E-02
  prteigrs : nnsclo,ikpt=   40   15 max resid (incl. the buffer)=  1.43991E-04
 Non-SCF case, kpt   16 (  0.37500  0.00000  0.00000), residuals and eigenvalues=
  5.45E-13  6.51E-13  7.67E-13  7.99E-13  9.65E-13  2.75E-13  2.75E-13  9.04E-13
  5.14E-13  2.21E-13  5.67E-13  4.26E-13  4.15E-13  9.46E-13  4.32E-13  4.00E-13
  3.16E-13  4.20E-13  7.00E-13  6.49E-13  2.17E-13  4.90E-13  4.64E-13  3.03E-13
  3.27E-13  6.40E-13  8.31E-13  7.44E-13  3.45E-13  4.01E-13  5.07E-13  8.22E-13
  1.72E-13  2.53E-13  8.76E-13  7.39E-13  8.01E-13  8.79E-13  1.38E-11  4.89E-06
 -8.3622E-01 -8.1320E-01 -7.8319E-01 -7.7206E-01 -7.5698E-01 -7.2222E-01
 -7.0332E-01 -6.7104E-01 -6.0650E-01 -5.8241E-01 -5.3189E-01 -5.1761E-01
 -4.9262E-01 -4.7732E-01 -4.3759E-01 -4.3471E-01 -4.2736E-01 -4.0551E-01
 -3.9676E-01 -3.8772E-01 -3.8670E-01 -3.7040E-01 -3.6857E-01 -3.4766E-01
 -3.3444E-01 -3.2652E-01 -3.0795E-01 -2.7552E-01 -2.6600E-01 -2.5142E-01
 -2.4926E-01 -2.4239E-01 -1.4770E-01 -1.4512E-01 -7.7227E-02 -5.7849E-02
 -2.3109E-02  3.2802E-03  2.2792E-02  3.9727E-02
  prteigrs : nnsclo,ikpt=   40   16 max resid (incl. the buffer)=  4.89036E-06
 Non-SCF case, kpt   17 (  0.40000  0.00000  0.00000), residuals and eigenvalues=
  5.91E-13  9.07E-13  7.99E-13  5.82E-13  8.76E-13  3.51E-13  9.58E-13  5.82E-13
  2.08E-13  2.39E-13  1.48E-13  4.92E-13  5.66E-13  2.17E-13  5.10E-13  4.66E-13
  3.51E-13  8.67E-13  6.84E-13  4.99E-13  3.24E-13  4.18E-13  7.16E-13  3.69E-13
  9.60E-13  7.72E-13  7.60E-13  3.75E-13  2.46E-13  9.49E-13  4.51E-13  4.47E-13
  9.12E-13  5.87E-13  5.80E-13  5.03E-13  8.42E-13  7.58E-13  9.78E-13  8.74E-08
 -8.3209E-01 -8.0931E-01 -7.8947E-01 -7.7246E-01 -7.5893E-01 -7.2647E-01
 -7.0152E-01 -6.7417E-01 -6.0568E-01 -5.8500E-01 -5.3084E-01 -5.1651E-01
 -4.8167E-01 -4.7399E-01 -4.3773E-01 -4.3021E-01 -4.2401E-01 -4.0516E-01
 -3.9181E-01 -3.9018E-01 -3.8879E-01 -3.7340E-01 -3.6557E-01 -3.5248E-01
 -3.4183E-01 -3.2322E-01 -3.1410E-01 -2.7831E-01 -2.6687E-01 -2.5120E-01
 -2.4942E-01 -2.4501E-01 -1.4992E-01 -1.4779E-01 -7.5663E-02 -5.7582E-02
 -2.1016E-02  9.6861E-03  2.8464E-02  3.6865E-02
  prteigrs : nnsclo,ikpt=   40   17 max resid (incl. the buffer)=  8.74197E-08
 Non-SCF case, kpt   18 (  0.42500  0.00000  0.00000), residuals and eigenvalues=
  6.93E-13  6.53E-13  7.29E-13  6.82E-13  4.90E-13  3.58E-13  5.58E-13  5.62E-13
  2.63E-13  1.31E-13  9.15E-13  5.52E-13  5.33E-13  4.45E-13  3.62E-13  3.57E-13
  9.59E-13  9.65E-13  3.66E-13  4.06E-13  5.22E-13  5.91E-13  7.62E-13  4.00E-13
  6.30E-13  4.84E-13  7.28E-13  5.03E-13  8.03E-13  5.60E-13  4.71E-13  3.01E-13
  8.31E-13  3.17E-13  6.16E-13  7.13E-13  5.27E-13  7.48E-13  7.44E-13  1.08E-08
 -8.2772E-01 -8.0539E-01 -7.9529E-01 -7.7588E-01 -7.5740E-01 -7.3128E-01
 -6.9881E-01 -6.7759E-01 -6.0420E-01 -5.8791E-01 -5.2922E-01 -5.1689E-01
 -4.7101E-01 -4.6981E-01 -4.4102E-01 -4.2323E-01 -4.2177E-01 -4.0703E-01
 -3.9225E-01 -3.9133E-01 -3.8657E-01 -3.7601E-01 -3.6045E-01 -3.5727E-01
 -3.4895E-01 -3.2486E-01 -3.1484E-01 -2.8360E-01 -2.6499E-01 -2.5094E-01
 -2.4957E-01 -2.4779E-01 -1.5165E-01 -1.5000E-01 -7.3741E-02 -5.8832E-02
 -1.7265E-02  1.1693E-02  3.4499E-02  3.7979E-02
  prteigrs : nnsclo,ikpt=   40   18 max resid (incl. the buffer)=  1.07638E-08
 Non-SCF case, kpt   19 (  0.45000  0.00000  0.00000), residuals and eigenvalues=
  4.07E-13  5.30E-13  6.18E-13  7.00E-13  5.29E-13  3.05E-13  8.22E-13  7.40E-13
  2.92E-13  3.07E-13  8.59E-13  4.62E-13  3.88E-13  3.00E-13  7.75E-13  3.97E-13
  3.13E-13  2.19E-13  2.48E-13  5.44E-13  9.13E-13  5.74E-13  9.92E-13  5.83E-13
  4.97E-13  3.64E-13  7.98E-13  8.20E-13  9.03E-13  3.37E-13  3.22E-13  2.64E-13
  5.07E-13  4.12E-13  7.09E-13  6.72E-13  6.63E-13  8.58E-13  6.31E-13  4.69E-07
 -8.2309E-01 -8.0360E-01 -7.9853E-01 -7.8059E-01 -7.5413E-01 -7.3620E-01
 -6.9563E-01 -6.8119E-01 -6.0220E-01 -5.9098E-01 -5.2719E-01 -5.1828E-01
 -4.6513E-01 -4.6097E-01 -4.4432E-01 -4.2347E-01 -4.1657E-01 -4.0766E-01
 -3.9515E-01 -3.9433E-01 -3.8102E-01 -3.7585E-01 -3.6191E-01 -3.5665E-01
 -3.5423E-01 -3.3073E-01 -3.1083E-01 -2.8934E-01 -2.6236E-01 -2.5066E-01
 -2.5064E-01 -2.4973E-01 -1.5283E-01 -1.5171E-01 -7.1520E-02 -6.1021E-02
 -1.2424E-02  9.0792E-03  4.0897E-02  4.3587E-02
  prteigrs : nnsclo,ikpt=   40   19 max resid (incl. the buffer)=  4.68918E-07
 Non-SCF case, kpt   20 (  0.47500  0.00000  0.00000), residuals and eigenvalues=
  8.92E-13  6.96E-13  5.10E-13  6.12E-13  5.08E-13  5.02E-13  6.29E-13  7.06E-13
  8.62E-13  1.97E-13  3.49E-13  3.26E-13  7.93E-13  2.76E-13  2.78E-13  6.65E-13
  2.94E-13  8.03E-13  7.65E-13  9.92E-13  2.68E-13  9.66E-13  2.84E-13  4.05E-13
  7.66E-13  4.49E-13  4.76E-13  8.41E-13  6.00E-13  3.08E-13  9.72E-13  3.58E-13
  4.17E-13  7.63E-13  3.62E-13  4.66E-13  7.14E-13  6.47E-13  5.80E-09  5.57E-05
 -8.1822E-01 -8.0795E-01 -7.9516E-01 -7.8558E-01 -7.5013E-01 -7.4104E-01
 -6.9218E-01 -6.8487E-01 -5.9977E-01 -5.9406E-01 -5.2493E-01 -5.2027E-01
 -4.6042E-01 -4.5436E-01 -4.4494E-01 -4.2983E-01 -4.1035E-01 -4.0526E-01
 -3.9926E-01 -3.9770E-01 -3.7518E-01 -3.7362E-01 -3.6629E-01 -3.6272E-01
 -3.4912E-01 -3.3702E-01 -3.0590E-01 -2.9505E-01 -2.5952E-01 -2.5360E-01
 -2.5039E-01 -2.4991E-01 -1.5344E-01 -1.5287E-01 -6.9047E-02 -6.3647E-02
 -6.9999E-03  4.2417E-03  4.7655E-02  6.1068E-02
  prteigrs : nnsclo,ikpt=   40   20 max resid (incl. the buffer)=  5.56948E-05
 Non-SCF case, kpt   21 (  0.50000  0.00000  0.00000), residuals and eigenvalues=
  7.53E-13  6.15E-13  4.30E-13  4.66E-13  5.61E-13  8.20E-13  5.68E-13  4.64E-13
  1.47E-13  2.33E-13  4.71E-13  4.17E-13  4.56E-13  3.33E-13  4.34E-13  5.76E-13
  4.08E-13  4.15E-13  3.61E-13  9.75E-13  9.72E-13  4.64E-13  7.38E-13  8.79E-13
  6.71E-13  6.40E-13  2.97E-13  3.93E-13  4.55E-13  6.01E-13  5.96E-13  5.46E-13
  5.55E-13  9.26E-13  5.07E-13  9.25E-13  6.38E-13  6.04E-13  1.42E-09  1.15E-08
 -8.1315E-01 -8.1314E-01 -7.9052E-01 -7.9049E-01 -7.4574E-01 -7.4570E-01
 -6.8859E-01 -6.8854E-01 -5.9706E-01 -5.9700E-01 -5.2259E-01 -5.2253E-01
 -4.5613E-01 -4.5610E-01 -4.3807E-01 -4.3805E-01 -4.0483E-01 -4.0480E-01
 -4.0123E-01 -4.0123E-01 -3.7030E-01 -3.7029E-01 -3.6908E-01 -3.6907E-01
 -3.4321E-01 -3.4318E-01 -3.0063E-01 -3.0058E-01 -2.5660E-01 -2.5655E-01
 -2.5019E-01 -2.5010E-01 -1.5350E-01 -1.5342E-01 -6.6386E-02 -6.6359E-02
 -1.3357E-03 -1.3033E-03  5.4770E-02  5.4773E-02
  prteigrs : nnsclo,ikpt=   40   21 max resid (incl. the buffer)=  1.14521E-08

 Integrated electronic density in atomic spheres:
 ------------------------------------------------
 Atom  Sphere_radius  Integrated_density
    1        2.00000          4.56193668
    2        2.00000          4.83337963
    3        2.00000          4.80270060
    4        2.00000          4.81499316
    5        2.00000          4.84196867
    6        2.00000          4.79017959
    7        2.00000          4.84855754
    8        2.00000          4.54258415
    9        2.00000          4.56193668
   10        2.00000          4.83337963
   11        2.00000          4.80270060
   12        2.00000          4.81499316
   13        2.00000          4.84196867
   14        2.00000          4.79017959
   15        2.00000          4.84855754
   16        2.00000          4.54258415
================================================================================

 ----iterations are completed or convergence reached----

 Mean square residual over all n,k,spin=   4.7543E-07; max=  1.8563E-04
 reduced coordinates (array xred) for   16 atoms
       0.019267666767      0.003429651926      0.000000000000
       0.503775644368      0.044187243730      0.000000000000
       0.000415536186      0.087849716753      0.000000000000
       0.500890430924      0.131429458810      0.000000000000
       0.000886935353      0.175361243325      0.000000000000
       0.500411520621      0.218941220140      0.000000000000
       0.003772591628      0.262605701713      0.000000000000
       0.519211138731      0.303362708245      0.000000000000
       0.314065666558      0.003429651926      0.000000000000
      -0.170442311042      0.044187243730      0.000000000000
       0.332917797140      0.087849716753      0.000000000000
      -0.167557097599      0.131429458810      0.000000000000
       0.332446397973      0.175361243325      0.000000000000
      -0.167078187295      0.218941220140      0.000000000000
       0.329560741697      0.262605701713      0.000000000000
      -0.185877805405      0.303362708245      0.000000000000

 cartesian coordinates (angstrom) at end:
    1      0.08204315786100     0.09618936253800     0.00000000000000
    2      2.14511415507050     1.23929276150000     0.00000000000000
    3      0.00176938397845     2.46386759800000     0.00000000000000
    4      2.13282870168050     3.68612212940000     0.00000000000000
    5      0.00377663668455     4.91825018160000     0.00000000000000
    6      2.13078946599550     6.14051129710000     0.00000000000000
    7      0.01606397568850     7.36514246620000     0.00000000000000
    8      2.21083963787050     8.50822945040000     0.00000000000000
    9      1.33731496250000     0.09618936253800     0.00000000000000
   10     -0.72575603470950     1.23929276150000     0.00000000000000
   11      1.41758873638255     2.46386759800000     0.00000000000000
   12     -0.71347058131950     3.68612212940000     0.00000000000000
   13      1.41558148367645     4.91825018160000     0.00000000000000
   14     -0.71143134563450     6.14051129710000     0.00000000000000
   15      1.40329414467250     7.36514246620000     0.00000000000000
   16     -0.79148151750950     8.50822945040000     0.00000000000000
 length scales=  8.046594396100 53.000000000000 37.777438479000 bohr
              =  4.258074361184 28.046392055270 19.990959441998 angstroms
 prteigrs : about to open file agnr_5o_DS2_EIG
 Eigenvalues (   eV  ) for nkpt=  21  k points:
 kpt#   1, nband= 40, wtk=  1.00000, kpt=  0.0000  0.0000  0.0000 (reduced coord)
 -23.57566  -22.92503  -21.68879  -20.01726  -18.27017  -18.19017  -17.69390  -17.56151
 -17.05828  -16.89632  -16.54740  -14.93999  -14.20198  -14.19835  -12.84479  -12.69007
 -12.37139  -11.79009  -11.18706  -11.05234  -10.60518  -10.11009   -9.76869   -8.43640
  -8.40954   -8.05823   -6.74180   -6.57593   -6.35083   -6.13787   -5.43992   -4.51840
  -3.92118   -3.39220   -2.90443   -2.85094   -2.75399   -1.92999   -0.50190    0.16218
 kpt#   2, nband= 40, wtk=  1.00000, kpt=  0.0250  0.0000  0.0000 (reduced coord)
 -23.57198  -22.92144  -21.68536  -20.01443  -18.35287  -18.20212  -17.75792  -17.48597
 -16.97925  -16.95297  -16.48892  -14.98386  -14.18816  -14.15556  -12.93937  -12.59827
 -12.36591  -11.78515  -11.20216  -11.04809  -10.59412  -10.11212   -9.76514   -8.44061
  -8.41462   -8.05554   -6.74254   -6.57988   -6.37888   -6.13984   -5.47882   -4.58791
  -3.85336   -3.35158   -2.91290   -2.81853   -2.76277   -1.93247   -0.49690    0.16739
 kpt#   3, nband= 40, wtk=  1.00000, kpt=  0.0500  0.0000  0.0000 (reduced coord)
 -23.56097  -22.91069  -21.67507  -20.00608  -18.53623  -18.24989  -17.87814  -17.35915
 -17.02651  -16.80098  -16.37250  -15.09362  -14.14691  -14.04939  -13.08596  -12.46140
 -12.34943  -11.77157  -11.24319  -11.03479  -10.56508  -10.11833   -9.75304   -8.45653
  -8.43157   -8.04660   -6.74560   -6.59041   -6.45909   -6.14641   -5.58629   -4.74301
  -3.70143   -3.23700   -2.93899   -2.79046   -2.72387   -1.94008   -0.48190    0.18296
 kpt#   4, nband= 40, wtk=  1.00000, kpt=  0.0750  0.0000  0.0000 (reduced coord)
 -23.54262  -22.89277  -21.65794  -19.99236  -18.75302  -18.36064  -17.96583  -17.38906
 -16.92641  -16.58526  -16.24645  -15.23368  -14.07922  -13.91394  -13.23618  -12.32518
 -12.32135  -11.74949  -11.30147  -11.01332  -10.52472  -10.12817   -9.73293   -8.48122
  -8.45921   -8.03134   -6.74999   -6.60535   -6.58339   -6.15783   -5.74158   -4.92986
  -3.52006   -3.06813   -2.98111   -2.83422   -2.57418   -1.95129   -0.45691    0.20885
 kpt#   5, nband= 40, wtk=  1.00000, kpt=  0.1000  0.0000  0.0000 (reduced coord)
 -23.51693  -22.86766  -21.63398  -19.97391  -18.97917  -18.53033  -18.00351  -17.53667
 -16.70393  -16.35764  -16.12333  -15.38322  -13.99063  -13.77038  -13.38216  -12.28334
 -12.19635  -11.71835  -11.36887  -10.98248  -10.48123  -10.14303   -9.70452   -8.51517
  -8.50116   -8.01019   -6.75656   -6.74289   -6.62516   -6.18073   -5.92294   -5.12935
  -3.32933   -3.03822   -2.89384   -2.86510   -2.38019   -1.96373   -0.42194    0.24499
 kpt#   6, nband= 40, wtk=  1.00000, kpt=  0.1250  0.0000  0.0000 (reduced coord)
 -23.48392  -22.83543  -21.60324  -19.95229  -19.20436  -18.72771  -18.01496  -17.71082
 -16.45719  -16.13307  -16.00221  -15.52534  -13.89612  -13.62984  -13.50820  -12.23597
 -12.07783  -11.67829  -11.43702  -10.94332  -10.43932  -10.16363   -9.66824   -8.56086
  -8.55883   -7.98351   -6.92688   -6.76641   -6.64792   -6.24481   -6.08662   -5.33430
  -3.13493   -3.10893   -2.96761   -2.64504   -2.15059   -1.96976   -0.37699    0.29122
 kpt#   7, nband= 40, wtk=  1.00000, kpt=  0.1500  0.0000  0.0000 (reduced coord)
 -23.44360  -22.79607  -21.56579  -19.93177  -19.42087  -18.93453  -18.01599  -17.89277
 -16.21859  -15.95503  -15.87108  -15.61500  -13.85403  -13.55565  -13.49807  -12.18058
 -11.97120  -11.62916  -11.49827  -10.89557  -10.40195  -10.18849   -9.62392   -8.63971
  -8.60980   -7.95174   -7.12826   -6.77847   -6.67174   -6.41405   -6.16057   -5.54092
  -3.19014   -3.05276   -2.94162   -2.43177   -1.95429   -1.89386   -0.32206    0.34746
 kpt#   8, nband= 40, wtk=  1.00000, kpt=  0.1750  0.0000  0.0000 (reduced coord)
 -23.39597  -22.74959  -21.52172  -19.92893  -19.61094  -19.14315  -18.07659  -18.01361
 -16.02566  -15.95318  -15.69849  -15.52267  -13.92748  -13.46421  -13.38145  -12.12173
 -11.87861  -11.57152  -11.54255  -10.83877  -10.37089  -10.21692   -9.57140   -8.73542
  -8.66857   -7.91547   -7.33961   -6.79152   -6.69382   -6.63080   -6.19741   -5.74776
  -3.28006   -3.14765   -2.75010   -2.27245   -1.87360   -1.61653   -0.25717    0.41364
 kpt#   9, nband= 40, wtk=  1.00000, kpt=  0.2000  0.0000  0.0000 (reduced coord)
 -23.34106  -22.69604  -21.47115  -20.00270  -19.71454  -19.35033  -18.25989  -18.01202
 -16.05981  -15.90116  -15.46461  -15.31463  -14.04301  -13.30663  -13.28364  -12.06529
 -11.80256  -11.55938  -11.50509  -10.77394  -10.34832  -10.24900   -9.51158   -8.85298
  -8.73646   -7.87811   -7.55352   -6.85775   -6.80553   -6.71384   -6.23132   -5.95351
  -3.37630   -3.24883   -2.56194   -2.20535   -1.69207   -1.32522   -0.18232    0.00125
 kpt#  10, nband= 40, wtk=  1.00000, kpt=  0.2250  0.0000  0.0000 (reduced coord)
 -23.27888  -22.63542  -21.41417  -20.16981  -19.71518  -19.55378  -18.44025  -18.01446
 -16.17659  -15.82242  -15.19421  -15.08870  -14.15989  -13.20752  -13.12459  -12.01700
 -11.74473  -11.53937  -11.42956  -10.70017  -10.33584  -10.28310   -9.44267   -8.98788
  -8.81238   -7.86982   -7.73539   -7.08640   -6.81834   -6.73056   -6.26762   -6.15739
  -3.47645   -3.35431   -2.37759   -2.18831   -1.45244   -1.02562   -0.13367   -0.09750
 kpt#  11, nband= 40, wtk=  1.00000, kpt=  0.2500  0.0000  0.0000 (reduced coord)
 -23.20946  -22.56784  -21.35123  -20.36459  -19.75273  -19.67963  -18.61603  -18.02411
 -16.28355  -15.77157  -14.90625  -14.86469  -14.26601  -13.15472  -12.93068  -11.97480
 -11.70700  -11.48228  -11.34561  -10.61774  -10.33488  -10.31844   -9.36668   -9.14285
  -8.89770   -8.03162   -7.74389   -7.31386   -6.82982   -6.74481   -6.35899   -6.30895
  -3.57790   -3.46233   -2.19979   -2.18507   -1.19230   -0.73025   -0.22796   -0.00275
 kpt#  12, nband= 40, wtk=  1.00000, kpt=  0.2750  0.0000  0.0000 (reduced coord)
 -23.13279  -22.49331  -21.28277  -20.56265  -19.94589  -19.63423  -18.78381  -18.04402
 -16.37299  -15.74322  -14.65190  -14.61325  -14.35318  -13.12128  -12.72847  -11.92980
 -11.69026  -11.39804  -11.25243  -10.52653  -10.35520  -10.34743   -9.31212   -9.28266
  -8.99296   -8.24726   -7.69382   -7.53946   -6.83918   -6.75575   -6.55709   -6.35550
  -3.67783   -3.56950   -2.18198   -2.03036   -0.92502   -0.51810   -0.22740    0.10197
 kpt#  13, nband= 40, wtk=  1.00000, kpt=  0.3000  0.0000  0.0000 (reduced coord)
 -23.04893  -22.41191  -21.20975  -20.75791  -20.13165  -19.58996  -18.93758  -18.07683
 -16.44104  -15.73696  -14.45763  -14.43012  -14.30416  -13.10104  -12.52250  -11.87443
 -11.69488  -11.29857  -11.15103  -10.42682  -10.39213  -10.37444   -9.49270   -9.19177
  -9.09698   -8.46551   -7.75977   -7.63559   -6.84482   -6.76470   -6.74944   -6.40754
  -3.77415   -3.67338   -2.17411   -1.87376   -0.65794   -0.52864    0.01019    0.21664
 kpt#  14, nband= 40, wtk=  1.00000, kpt=  0.3250  0.0000  0.0000 (reduced coord)
 -22.95795  -22.32380  -21.13425  -20.94843  -20.30785  -19.56168  -19.06407  -18.12388
 -16.48577  -15.75352  -14.46712  -14.29110  -14.00716  -13.08189  -12.31467  -11.80442
 -11.72098  -11.19521  -11.04174  -10.43125  -10.41840  -10.31940   -9.68031   -9.21139
  -9.09420   -8.68124   -7.97463   -7.57532   -6.93441   -6.84727   -6.77173   -6.46485
  -3.86472   -3.77294   -2.15829   -1.73681   -0.59102   -0.39423    0.32386    0.34123
 kpt#  15, nband= 40, wtk=  1.00000, kpt=  0.3500  0.0000  0.0000 (reduced coord)
 -22.85983  -22.22916  -21.13340  -21.06169  -20.46919  -19.57659  -19.13695  -18.18544
 -16.50630  -15.79182  -14.48244  -14.16401  -13.70580  -13.04871  -12.10886  -11.76700
 -11.72146  -11.10122  -10.92331  -10.47864  -10.47419  -10.20359   -9.86287   -9.33242
  -8.99097   -8.89396   -8.18240   -7.52028   -7.10645   -6.84594   -6.77797   -6.52779
  -3.94684   -3.86530   -2.13412   -1.63223   -0.63214   -0.14071    0.47575    0.66559
 kpt#  16, nband= 40, wtk=  1.00000, kpt=  0.3750  0.0000  0.0000 (reduced coord)
 -22.75464  -22.12834  -21.31167  -21.00877  -20.59837  -19.65247  -19.13820  -18.25992
 -16.50381  -15.84820  -14.47351  -14.08496  -13.40480  -12.98860  -11.90737  -11.82909
 -11.62901  -11.03435  -10.79646  -10.55037  -10.52257  -10.07916  -10.02938   -9.46027
  -9.10061   -8.88493   -8.37976   -7.49734   -7.23810   -6.84152   -6.78267   -6.59585
  -4.01906   -3.94882   -2.10145   -1.57414   -0.62883    0.08926    0.62019    1.08102
 kpt#  17, nband= 40, wtk=  1.00000, kpt=  0.4000  0.0000  0.0000 (reduced coord)
 -22.64245  -22.02237  -21.48246  -21.01963  -20.65144  -19.76825  -19.08940  -18.34513
 -16.48134  -15.91864  -14.44478  -14.05497  -13.10695  -12.89783  -11.91130  -11.70674
 -11.53791  -11.02488  -10.66174  -10.61728  -10.57952  -10.16064   -9.94761   -9.59139
  -9.30162   -8.79539   -8.54706   -7.57315   -7.26189   -6.83552   -6.78693   -6.66713
  -4.07941   -4.02152   -2.05889   -1.56689   -0.57188    0.26357    0.77453    1.00315
 kpt#  18, nband= 40, wtk=  1.00000, kpt=  0.4250  0.0000  0.0000 (reduced coord)
 -22.52333  -21.91573  -21.64105  -21.11268  -20.61003  -19.89910  -19.01568  -18.43812
 -16.44106  -15.99779  -14.40084  -14.06523  -12.81684  -12.78420  -12.00081  -11.51663
 -11.47702  -11.07597  -10.67355  -10.64863  -10.51921  -10.23180   -9.80847   -9.72170
  -9.49553   -8.83981   -8.56717   -7.71715   -7.21076   -6.82834   -6.79108   -6.74259
  -4.12650   -4.08172   -2.00659   -1.60090   -0.46981    0.31817    0.93876    1.03346
 kpt#  19, nband= 40, wtk=  1.00000, kpt=  0.4500  0.0000  0.0000 (reduced coord)
 -22.39742  -21.86695  -21.72904  -21.24097  -20.52092  -20.03299  -18.92914  -18.53602
 -16.38662  -16.08145  -14.34565  -14.10312  -12.65686  -12.54363  -12.09051  -11.52333
 -11.33544  -11.09295  -10.75261  -10.73020  -10.36801  -10.22745   -9.84802   -9.70489
  -9.63920   -8.99962   -8.45804   -7.87325   -7.13922   -6.82068   -6.82031   -6.79537
  -4.15873   -4.12816   -1.94615   -1.66047   -0.33807    0.24706    1.11286    1.18607
 kpt#  20, nband= 40, wtk=  1.00000, kpt=  0.4750  0.0000  0.0000 (reduced coord)
 -22.26502  -21.98540  -21.63736  -21.37671  -20.41195  -20.16483  -18.83523  -18.63635
 -16.32062  -16.16514  -14.28394  -14.15721  -12.52866  -12.36372  -12.10755  -11.69614
 -11.16627  -11.02764  -10.86444  -10.82200  -10.20921  -10.16680   -9.96738   -9.87019
  -9.50005   -9.17083   -8.32399   -8.02872   -7.06185   -6.90072   -6.81359   -6.80041
  -4.17528   -4.15975   -1.87885   -1.73192   -0.19048    0.11542    1.29677    1.66174
 kpt#  21, nband= 40, wtk=  1.00000, kpt=  0.5000  0.0000  0.0000 (reduced coord)
 -22.12706  -22.12664  -21.51126  -21.51035  -20.29264  -20.29151  -18.73748  -18.73612
 -16.24671  -16.24529  -14.22027  -14.21877  -12.41198  -12.41104  -11.92060  -11.92002
 -11.01596  -11.01530  -10.91807  -10.91804  -10.07635  -10.07618  -10.04327  -10.04289
  -9.33927   -9.33845   -8.18057   -8.17925   -6.98238   -6.98117   -6.80797   -6.80563
  -4.17706   -4.17465   -1.80647   -1.80572   -0.03635   -0.03546    1.49037    1.49046

== END DATASET(S) ==============================================================
================================================================================
  
 -outvars: echo values of variables after computation  --------
            acell      8.0465943961E+00  5.3000000000E+01  3.7777438479E+01 Bohr
              amu      1.20110000E+01
        boxcutmin      1.50000000E+00
           diemac      1.00000000E+01
             ecut      2.00000000E+01 Hartree
           enunit1          0
           enunit2          1
           etotal1    -9.6134802948E+01
            fcart1     3.5968525244E-02  6.2474276862E-03 -0.0000000000E+00
                       4.0885509064E-04 -8.9725860854E-03 -0.0000000000E+00
                       2.8516445039E-03  4.1577644976E-04 -0.0000000000E+00
                      -5.9868862194E-04  3.4562158882E-03 -0.0000000000E+00
                      -5.6776068530E-04 -3.4824687644E-03 -0.0000000000E+00
                       2.9103987699E-03 -4.0923454152E-04 -0.0000000000E+00
                       4.3483100878E-04  8.9117017104E-03 -0.0000000000E+00
                       3.6713500528E-02 -6.1668323433E-03 -0.0000000000E+00
                      -3.5968525244E-02  6.2474276862E-03 -0.0000000000E+00
                      -4.0885509064E-04 -8.9725860854E-03 -0.0000000000E+00
                      -2.8516445039E-03  4.1577644976E-04 -0.0000000000E+00
                       5.9868862194E-04  3.4562158882E-03 -0.0000000000E+00
                       5.6776068530E-04 -3.4824687644E-03 -0.0000000000E+00
                      -2.9103987699E-03 -4.0923454152E-04 -0.0000000000E+00
                      -4.3483100878E-04  8.9117017104E-03 -0.0000000000E+00
                      -3.6713500528E-02 -6.1668323433E-03 -0.0000000000E+00
-          fftalg         112
           getden1          0
           getden2         -1
             iscf1          7
             iscf2         -2
           istwfk1       2    0    0    0    0    0    0    0    3
           istwfk2       2    0    0    0    0    0    0    0    0    0
                         0    0    0    0    0    0    0    0    0    0
                         3
           jdtset        1    2
              kpt1     0.00000000E+00  0.00000000E+00  0.00000000E+00
                       6.25000000E-02  0.00000000E+00  0.00000000E+00
                       1.25000000E-01  0.00000000E+00  0.00000000E+00
                       1.87500000E-01  0.00000000E+00  0.00000000E+00
                       2.50000000E-01  0.00000000E+00  0.00000000E+00
                       3.12500000E-01  0.00000000E+00  0.00000000E+00
                       3.75000000E-01  0.00000000E+00  0.00000000E+00
                       4.37500000E-01  0.00000000E+00  0.00000000E+00
                       5.00000000E-01  0.00000000E+00  0.00000000E+00
              kpt2     0.00000000E+00  0.00000000E+00  0.00000000E+00
                       2.50000000E-02  0.00000000E+00  0.00000000E+00
                       5.00000000E-02  0.00000000E+00  0.00000000E+00
                       7.50000000E-02  0.00000000E+00  0.00000000E+00
                       1.00000000E-01  0.00000000E+00  0.00000000E+00
                       1.25000000E-01  0.00000000E+00  0.00000000E+00
                       1.50000000E-01  0.00000000E+00  0.00000000E+00
                       1.75000000E-01  0.00000000E+00  0.00000000E+00
                       2.00000000E-01  0.00000000E+00  0.00000000E+00
                       2.25000000E-01  0.00000000E+00  0.00000000E+00
                       2.50000000E-01  0.00000000E+00  0.00000000E+00
                       2.75000000E-01  0.00000000E+00  0.00000000E+00
                       3.00000000E-01  0.00000000E+00  0.00000000E+00
                       3.25000000E-01  0.00000000E+00  0.00000000E+00
                       3.50000000E-01  0.00000000E+00  0.00000000E+00
                       3.75000000E-01  0.00000000E+00  0.00000000E+00
                       4.00000000E-01  0.00000000E+00  0.00000000E+00
                       4.25000000E-01  0.00000000E+00  0.00000000E+00
                       4.50000000E-01  0.00000000E+00  0.00000000E+00
                       4.75000000E-01  0.00000000E+00  0.00000000E+00
                       5.00000000E-01  0.00000000E+00  0.00000000E+00
           kptopt1          1
           kptopt2         -1
         kptrlatt       16    0    0      0    1    0      0    0    1
          kptrlen1     1.28745510E+02
          kptrlen2     3.00000000E+01
P           mkmem1          9
P           mkmem2         21
            natom          16
            nband1         34
            nband2         40
           nbdbuf1          0
           nbdbuf2          2
           ndtset           2
            ngfft          27     162     120
             nkpt1          9
             nkpt2         21
            nstep          40
             nsym           4
           ntypat           1
              occ      2.000000  2.000000  2.000000  2.000000  2.000000  2.000000
                       2.000000  2.000000  2.000000  2.000000  2.000000  2.000000
                       2.000000  2.000000  2.000000  2.000000  2.000000  2.000000
                       2.000000  2.000000  2.000000  2.000000  2.000000  2.000000
                       2.000000  2.000000  2.000000  2.000000  2.000000  2.000000
                       2.000000  2.000000  0.000000  0.000000
           shiftk1     0.00000000E+00  0.00000000E+00  0.00000000E+00
           shiftk2     5.00000000E-01  5.00000000E-01  5.00000000E-01
          spgroup          25
           strten1     2.3599712388E-05  3.5688109573E-05  3.0906942126E-05
                       0.0000000000E+00  0.0000000000E+00  0.0000000000E+00
           symrel      1  0  0   0  1  0   0  0  1      -1  0  0   0  1  0   0  0 -1
                       1  0  0   0  1  0   0  0 -1      -1  0  0   0  1  0   0  0  1
            tnons      0.0000000  0.0000000  0.0000000     0.3333333  0.0000000 -0.0000000
                       0.0000000  0.0000000 -0.0000000     0.3333333  0.0000000  0.0000000
           toldfe1     1.00000000E-06 Hartree
           toldfe2     0.00000000E+00 Hartree
           tolwfr1     0.00000000E+00
           tolwfr2     1.00000000E-12
            typat      1  1  1  1  1  1  1  1  1  1  1  1  1  1  1  1
              wtk1       0.06250    0.12500    0.12500    0.12500    0.12500    0.12500
                         0.12500    0.12500    0.06250
              wtk2       1.00000    1.00000    1.00000    1.00000    1.00000    1.00000
                         1.00000    1.00000    1.00000    1.00000    1.00000    1.00000
                         1.00000    1.00000    1.00000    1.00000    1.00000    1.00000
                         1.00000    1.00000    1.00000
           xangst      8.2043157861E-02  9.6189362538E-02  2.1885391224E-46
                       2.1451141551E+00  1.2392927615E+00  0.0000000000E+00
                       1.7693839784E-03  2.4638675980E+00  2.1885391224E-46
                       2.1328287017E+00  3.6861221294E+00  2.1885391224E-46
                       3.7766366845E-03  4.9182501816E+00  2.1885391224E-46
                       2.1307894660E+00  6.1405112971E+00  2.1885391224E-46
                       1.6063975688E-02  7.3651424662E+00  2.1885391224E-46
                       2.2108396379E+00  8.5082294504E+00  2.1885391224E-46
                       1.3373149625E+00  9.6189362538E-02  0.0000000000E+00
                      -7.2575603471E-01  1.2392927615E+00  2.1885391224E-46
                       1.4175887364E+00  2.4638675980E+00  2.1885391224E-46
                      -7.1347058132E-01  3.6861221294E+00  2.1885391224E-46
                       1.4155814837E+00  4.9182501816E+00  2.1885391224E-46
                      -7.1143134563E-01  6.1405112971E+00  2.1885391224E-46
                       1.4032941447E+00  7.3651424662E+00  2.1885391224E-46
                      -7.9148151751E-01  8.5082294504E+00  2.1885391224E-46
            xcart      1.5503909943E-01  1.8177155209E-01  4.1357395724E-46
                       4.0536782769E+00  2.3419239177E+00  0.0000000000E+00
                       3.3436511432E-03  4.6560349879E+00  4.1357395724E-46
                       4.0304621345E+00  6.9657613169E+00  4.1357395724E-46
                       7.1368090372E-03  9.2941458962E+00  4.1357395724E-46
                       4.0266085376E+00  1.1603884667E+01  4.1357395724E-46
                       3.0356514657E-02  1.3918102191E+01  4.1357395724E-46
                       4.1778814393E+00  1.6078223537E+01  4.1357395724E-46
                       2.5271590325E+00  1.8177155209E-01  0.0000000000E+00
                      -1.3714801449E+00  2.3419239177E+00  4.1357395724E-46
                       2.6788544808E+00  4.6560349879E+00  4.1357395724E-46
                      -1.3482640026E+00  6.9657613169E+00  4.1357395724E-46
                       2.6750613229E+00  9.2941458962E+00  4.1357395724E-46
                      -1.3444104056E+00  1.1603884667E+01  4.1357395724E-46
                       2.6518416173E+00  1.3918102191E+01  4.1357395724E-46
                      -1.4956833073E+00  1.6078223537E+01  4.1357395724E-46
             xred      1.9267666767E-02  3.4296519263E-03  1.0947644253E-47
                       5.0377564437E-01  4.4187243730E-02  0.0000000000E+00
                       4.1553618569E-04  8.7849716753E-02  1.0947644253E-47
                       5.0089043092E-01  1.3142945881E-01  1.0947644253E-47
                       8.8693535251E-04  1.7536124333E-01  1.0947644253E-47
                       5.0041152062E-01  2.1894122014E-01  1.0947644253E-47
                       3.7725916285E-03  2.6260570171E-01  1.0947644253E-47
                       5.1921113873E-01  3.0336270825E-01  1.0947644253E-47
                       3.1406566656E-01  3.4296519263E-03  0.0000000000E+00
                      -1.7044231104E-01  4.4187243730E-02  1.0947644253E-47
                       3.3291779714E-01  8.7849716753E-02  1.0947644253E-47
                      -1.6755709760E-01  1.3142945881E-01  1.0947644253E-47
                       3.3244639797E-01  1.7536124333E-01  1.0947644253E-47
                      -1.6707818730E-01  2.1894122014E-01  1.0947644253E-47
                       3.2956074170E-01  2.6260570171E-01  1.0947644253E-47
                      -1.8587780541E-01  3.0336270825E-01  1.0947644253E-47
            znucl        6.00000

================================================================================

- Total cpu        time (s,m,h):       5898.6       98.31      1.638
- Total wall clock time (s,m,h):       4163.8       69.40      1.157
-
- For major independent code sections, cpu and wall times (sec),
-  as well as % of the time and number of calls for node 0-
-<BEGIN_TIMER mpi_nprocs = 1, omp_nthreads = 1, mpi_rank = 0>
- cpu_time =         5898.6, wall_time =         4163.8
-
- routine                        cpu     %       wall     %      number of calls  Gflops    Speedup Efficacity
-                                                                  (-1=no count)
- vtowfk(ssdiag)              2030.505  34.4    295.131   7.1             -1      -1.00        6.88       6.88
- fourwf%(pot)                1520.188  25.8   1522.097  36.6          77707      -1.00        1.00       1.00
- projbd                      1490.479  25.3   1492.715  35.8         106798      -1.00        1.00       1.00
- nonlop(apply)                409.964   7.0    410.998   9.9          77707      -1.00        1.00       1.00
- fourwf%(den)                  46.225   0.8     46.282   1.1           4608      -1.00        1.00       1.00
- getghc-other                  30.792   0.5     28.380   0.7             -1      -1.00        1.08       1.08
- others (107)                  20.356   0.3     18.492   0.4             -1      -1.00        1.10       1.10
-<END_TIMER>
-
- subtotal                    5548.507  94.1   3814.095  91.6                                  1.45       1.45

- For major independent code sections, cpu and wall times (sec),
- as well as % of the total time and number of calls 

-<BEGIN_TIMER mpi_nprocs = 1, omp_nthreads = 1, mpi_rank = world>
- cpu_time =        5898.6, wall_time =        4163.8
-
- routine                         cpu     %       wall     %      number of calls Gflops    Speedup Efficacity
-                                                                  (-1=no count)
- vtowfk(ssdiag)              2030.505  34.4    295.131   7.1             -1      -1.00        6.88       6.88
- fourwf%(pot)                1520.188  25.8   1522.097  36.6          77707      -1.00        1.00       1.00
- projbd                      1490.479  25.3   1492.715  35.8         106798      -1.00        1.00       1.00
- nonlop(apply)                409.964   7.0    410.998   9.9          77707      -1.00        1.00       1.00
- fourwf%(den)                  46.225   0.8     46.282   1.1           4608      -1.00        1.00       1.00
- getghc-other                  30.792   0.5     28.380   0.7             -1      -1.00        1.08       1.08
- others (107)                  20.356   0.3     18.492   0.4             -1      -1.00        1.10       1.10
-<END_TIMER>

- subtotal                    5548.507  94.1   3814.095  91.6                                  1.45       1.45

================================================================================

 Suggested references for the acknowledgment of ABINIT usage.

 The users of ABINIT have little formal obligations with respect to the ABINIT group
 (those specified in the GNU General Public License, http://www.gnu.org/copyleft/gpl.txt).
 However, it is common practice in the scientific literature,
 to acknowledge the efforts of people that have made the research possible.
 In this spirit, please find below suggested citations of work written by ABINIT developers,
 corresponding to implementations inside of ABINIT that you have used in the present run.
 Note also that it will be of great value to readers of publications presenting these results,
 to read papers enabling them to understand the theoretical formalism and details
 of the ABINIT implementation.
 For information on why they are suggested, see also http://www.abinit.org/about/?text=acknowledgments.
-
- [1] Recent developments in the ABINIT software package.
- Computer Phys. Comm. 205, 106 (2016).
- X.Gonze, F.Jollet, F.Abreu Araujo, D.Adams, B.Amadon, T.Applencourt,
- C.Audouze, J.-M.Beuken, J.Bieder, A.Bokhanchuk, E.Bousquet, F.Bruneval
- D.Caliste, M.Cote, F.Dahm, F.Da Pieve, M.Delaveau, M.Di Gennaro,
- B.Dorado, C.Espejo, G.Geneste, L.Genovese, A.Gerossier, M.Giantomassi,
- Y.Gillet, D.R.Hamann, L.He, G.Jomard, J.Laflamme Janssen, S.Le Roux,
- A.Levitt, A.Lherbier, F.Liu, I.Lukacevic, A.Martin, C.Martins,
- M.J.T.Oliveira, S.Ponce, Y.Pouillon, T.Rangel, G.-M.Rignanese,
- A.H.Romero, B.Rousseau, O.Rubel, A.A.Shukri, M.Stankovski, M.Torrent,
- M.J.Van Setten, B.Van Troeye, M.J.Verstraete, D.Waroquier, J.Wiktor,
- B.Xue, A.Zhou, J.W.Zwanziger.
- Comment : the fourth generic paper describing the ABINIT project.
- Note that a version of this paper, that is not formatted for Computer Phys. Comm. 
- is available at http://www.abinit.org/about/ABINIT16.pdf .
- The licence allows the authors to put it on the Web.
-
- [2] ABINIT : First-principles approach of materials and nanosystem properties.
- Computer Phys. Comm. 180, 2582-2615 (2009).
- X. Gonze, B. Amadon, P.-M. Anglade, J.-M. Beuken, F. Bottin, P. Boulanger, F. Bruneval,
- D. Caliste, R. Caracas, M. Cote, T. Deutsch, L. Genovese, Ph. Ghosez, M. Giantomassi
- S. Goedecker, D.R. Hamann, P. Hermet, F. Jollet, G. Jomard, S. Leroux, M. Mancini, S. Mazevet,
- M.J.T. Oliveira, G. Onida, Y. Pouillon, T. Rangel, G.-M. Rignanese, D. Sangalli, R. Shaltaf,
- M. Torrent, M.J. Verstraete, G. Zerah, J.W. Zwanziger
- Comment : the third generic paper describing the ABINIT project.
- Note that a version of this paper, that is not formatted for Computer Phys. Comm. 
- is available at http://www.abinit.org/about/ABINIT_CPC_v10.pdf .
- The licence allows the authors to put it on the Web.
-
- [3] A brief introduction to the ABINIT software package.
- Z. Kristallogr. 220, 558-562 (2005).
- X. Gonze, G.-M. Rignanese, M. Verstraete, J.-M. Beuken, Y. Pouillon, R. Caracas, F. Jollet,
- M. Torrent, G. Zerah, M. Mikami, Ph. Ghosez, M. Veithen, J.-Y. Raty, V. Olevano, F. Bruneval,
- L. Reining, R. Godby, G. Onida, D.R. Hamann, and D.C. Allan.
- Comment : the second generic paper describing the ABINIT project. Note that this paper
- should be cited especially if you are using the GW part of ABINIT, as several authors
- of this part are not in the list of authors of the first or third paper.
- The .pdf of the latter paper is available at http://www.abinit.org/about/zfk_0505-06_558-562.pdf.
- Note that it should not redistributed (Copyright by Oldenburg Wissenshaftverlag,
- the licence allows the authors to put it on the Web).
-
- And optionally:
-
- [4] First-principles computation of material properties : the ABINIT software project. 
- X. Gonze, J.-M. Beuken, R. Caracas, F. Detraux, M. Fuchs, G.-M. Rignanese, L. Sindic,
- M. Verstraete, G. Zerah, F. Jollet, M. Torrent, A. Roy, M. Mikami, Ph. Ghosez, J.-Y. Raty, D.C. Allan.
- Computational Materials Science 25, 478-492 (2002). http://dx.doi.org/10.1016/S0927-0256(02)00325-7
- Comment : the original paper describing the ABINIT project.
-
- Proc.   0 individual time (sec): cpu=       5898.7  wall=       4163.9

================================================================================

 Calculation completed.
.Delivered   4 WARNINGs and   2 COMMENTs to log file.
+Overall time at end (sec) : cpu=       5898.7  wall=       4163.9
