  ABINIT 8.4.1
  
  Give name for formatted input file: 
mos2_7.in
  Give name for formatted output file:
mos2_7.out
  Give root name for generic input files:
mos2_7i
  Give root name for generic output files:
mos2_7o
  Give root name for generic temporary files:
mos2_7

--- !COMMENT
src_file: isfile.F90
src_line: 109
message: |
    Output file mos2_7.out
     already exists.
...


--- !COMMENT
src_file: isfile.F90
src_line: 133
message: |
    Renaming old mos2_7.out to mos2_7.out0018
...


.Version 8.4.1 of ABINIT 
.(sequential version, prepared for a x86_64_linux_gnu7.0 computer) 

.Copyright (C) 1998-2017 ABINIT group . 
 ABINIT comes with ABSOLUTELY NO WARRANTY.
 It is free software, and you are welcome to redistribute it
 under certain conditions (GNU General Public License,
 see ~abinit/COPYING or http://www.gnu.org/copyleft/gpl.txt).

 ABINIT is a project of the Universite Catholique de Louvain,
 Corning Inc. and other collaborators, see ~abinit/doc/developers/contributors.txt .
 Please read ~abinit/doc/users/acknowledgments.html for suggested
 acknowledgments of the ABINIT effort.
 For more information, see http://www.abinit.org .

.Starting date : Thu 10 Aug 2017.
- ( at 14h56 )
  

 ++++++++++++++++++++++++++++++++++++++++++++++++++++++++++++++++++++++++++++++

 === Build Information === 
  Version       : 8.4.1
  Build target  : x86_64_linux_gnu7.0
  Build date    : 20170802

 === Compiler Suite === 
  C compiler       : gnu[trunk
  C++ compiler     : gnu[trunk
  Fortran compiler : gnu7.0
  CFLAGS           :  -g -O2 -mtune=native -march=native
  CXXFLAGS         :  -g -O2 -mtune=native -march=native
  FCFLAGS          :  -g -ffree-line-length-none
  FC_LDFLAGS       : 

 === Optimizations === 
  Debug level        : basic
  Optimization level : standard
  Architecture       : intel_xeon

 === Multicore === 
  Parallel build : no
  Parallel I/O   : no
  openMP support : no
  GPU support    : no

 === Connectors / Fallbacks === 
  Connectors on : yes
  Fallbacks on  : yes
  DFT flavor    : none
  FFT flavor    : none
  LINALG flavor : netlib
  MATH flavor   : none
  TIMER flavor  : abinit
  TRIO flavor   : none

 === Experimental features === 
  Bindings            : @enable_bindings@
  Exports             : no
  GW double-precision : no

 ++++++++++++++++++++++++++++++++++++++++++++++++++++++++++++++++++++++++++++++


 ++++++++++++++++++++++++++++++++++++++++++++++++++++++++++++++++++++++++++++++
 Default optimizations:
   -O2 -mtune=native -march=native


 Optimizations for 20_datashare:
   -O0


 ++++++++++++++++++++++++++++++++++++++++++++++++++++++++++++++++++++++++++++++


 ++++++++++++++++++++++++++++++++++++++++++++++++++++++++++++++++++++++++++++++
 CPP options activated during the build:

                    CC_GNU                   CXX_GNU                    FC_GNU
 
 HAVE_FC_ALLOCATABLE_DT...             HAVE_FC_ASYNC         HAVE_FC_BACKTRACE
 
  HAVE_FC_COMMAND_ARGUMENT      HAVE_FC_COMMAND_LINE        HAVE_FC_CONTIGUOUS
 
           HAVE_FC_CPUTIME              HAVE_FC_EXIT             HAVE_FC_FLUSH
 
             HAVE_FC_GAMMA            HAVE_FC_GETENV   HAVE_FC_IEEE_EXCEPTIONS
 
          HAVE_FC_INT_QUAD             HAVE_FC_IOMSG     HAVE_FC_ISO_C_BINDING
 
  HAVE_FC_ISO_FORTRAN_2008        HAVE_FC_LONG_LINES        HAVE_FC_MOVE_ALLOC
 
           HAVE_FC_PRIVATE         HAVE_FC_PROTECTED         HAVE_FC_STREAM_IO
 
            HAVE_FC_SYSTEM          HAVE_FORTRAN2003        HAVE_LIBPAW_ABINIT
 
      HAVE_LIBTETRA_ABINIT               HAVE_LINALG        HAVE_LINALG_SERIAL
 
             HAVE_OS_LINUX         HAVE_TIMER_ABINIT              USE_MACROAVE
 
 ++++++++++++++++++++++++++++++++++++++++++++++++++++++++++++++++++++++++++++++

- input  file    -> mos2_7.in
- output file    -> mos2_7.out
- root for input  files -> mos2_7i
- root for output files -> mos2_7o

-instrng: 99 lines of input have been read from file mos2_7.in


 Please give name of formatted atomic psp file
 iofn2 : for atom type 1, psp file is ./Mo.LDA_PW-JTH.xml

 Please give name of formatted atomic psp file
 iofn2 : for atom type 2, psp file is ./S.LDA_PW-JTH.xml
- inpspheads : Reading pseudopotential header in XML form from ./Mo.LDA_PW-JTH.xml
- inpspheads : Reading pseudopotential header in XML form from ./S.LDA_PW-JTH.xml

 inpspheads: deduce mpsang = 3, n1xccc = 1.
 invars1 : treat image number: 1

 symlatt : the Bravais lattice is hP (primitive hexagonal)
  xred   is defined in input file
 ingeo : takes atomic coordinates from input array xred
  symfind : exit, nsym=           6
    symrel matrices, symafm and tnons are :
   1       1   0   0     0   1   0     0   0   1       1      0.0000  0.0000  0.0000
   2       0  -1   0    -1   0   0     0   0  -1       1      0.0000  0.0000  0.0000
   3       0   1   0    -1  -1   0     0   0   1       1      0.0000  0.0000  0.0000
   4       1   1   0     0  -1   0     0   0  -1       1      0.0000  0.0000  0.0000
   5      -1  -1   0     1   0   0     0   0   1       1      0.0000  0.0000  0.0000
   6      -1   0   0     1   1   0     0   0  -1       1      0.0000  0.0000  0.0000

 symlatt : the Bravais lattice is hP (primitive hexagonal)

 symlatt : the Bravais lattice is hP (primitive hexagonal)
 symspgr : spgroup= 149  P3 1 2   (=D3^1)
 symspgr : optical characteristics = uniaxial
 Optical axis (in reduced coordinates, real space ) :   0   0   1
 ingeo : angdeg(1:3)=   90.00000000   90.00000000  120.00000000
 invars1 : treat image number: 1

 symlatt : the Bravais lattice is hP (primitive hexagonal)
  xred   is defined in input file
 ingeo : takes atomic coordinates from input array xred
  symfind : exit, nsym=           6
    symrel matrices, symafm and tnons are :
   1       1   0   0     0   1   0     0   0   1       1      0.0000  0.0000  0.0000
   2       0  -1   0    -1   0   0     0   0  -1       1      0.0000  0.0000  0.0000
   3       0   1   0    -1  -1   0     0   0   1       1      0.0000  0.0000  0.0000
   4       1   1   0     0  -1   0     0   0  -1       1      0.0000  0.0000  0.0000
   5      -1  -1   0     1   0   0     0   0   1       1      0.0000  0.0000  0.0000
   6      -1   0   0     1   1   0     0   0  -1       1      0.0000  0.0000  0.0000

 symlatt : the Bravais lattice is hP (primitive hexagonal)

 symlatt : the Bravais lattice is hP (primitive hexagonal)
 symspgr : spgroup= 149  P3 1 2   (=D3^1)
 symspgr : optical characteristics = uniaxial
 Optical axis (in reduced coordinates, real space ) :   0   0   1
 ingeo : angdeg(1:3)=   90.00000000   90.00000000  120.00000000
 invars2: take the default value of fband=  1.25000000E-01
 chkneu : initialized the occupation numbers for occopt=    1, spin-unpolarized or antiferromagnetic case :
  1.00  1.00  1.00  1.00  1.00  1.00  1.00  1.00  1.00  1.00  1.00  1.00
  1.00  1.00  1.00  1.00  1.00  1.00  1.00  1.00  1.00  1.00  1.00  1.00
  1.00  1.00  0.00  0.00
 chkneu : initialized the occupation numbers for occopt=    1, spin-unpolarized or antiferromagnetic case :
  1.00  1.00  1.00  1.00  1.00  1.00  1.00  1.00  1.00  1.00  1.00  1.00
  1.00  1.00  1.00  1.00  1.00  1.00  1.00  1.00  1.00  1.00  1.00  1.00
  1.00  1.00  0.00  0.00  0.00  0.00  0.00  0.00
mpi_setup: mkmem  undefined in the input file.Use default mkmem  = nkpt
 mpi_setup: With nkpt_me=51 and mkmem  = 51, ground state wf handled in core.
mpi_setup: mkqmem undefined in the input file.Use default mkqmem = nkpt
 mpi_setup: With nkpt_me=51 and mkqmem = 51, ground state wf handled in core.
mpi_setup: mk1mem undefined in the input file.Use default mk1mem = nkpt
 mpi_setup: With nkpt_me=51 and mk1mem = 51, ground state wf handled in core.
getng is called for the coarse grid:
 For input ecut=  1.700000E+01 best grid ngfft=      24      24     144
       max ecut=  1.730042E+01

 ==== FFT mesh ====
  FFT mesh divisions ........................    24   24  144
  Augmented FFT divisions ...................    25   25  144
  FFT algorithm .............................   112
  FFT cache size ............................    16
 getmpw: optimal value of mpw= 4128
getng is called for the fine grid:
 Using supplied coarse mesh as initial guess.
 For input ecut=  4.000000E+01 best grid ngfft=      36      36     225
       max ecut=  4.186274E+01

 ==== FFT mesh ====
  FFT mesh divisions ........................    36   36  225
  Augmented FFT divisions ...................    37   37  225
  FFT algorithm .............................   112
  FFT cache size ............................    16
mpi_setup: mkmem  undefined in the input file.Use default mkmem  = nkpt
 mpi_setup: With nkpt_me=48 and mkmem  = 48, ground state wf handled in core.
mpi_setup: mkqmem undefined in the input file.Use default mkqmem = nkpt
 mpi_setup: With nkpt_me=48 and mkqmem = 48, ground state wf handled in core.
mpi_setup: mk1mem undefined in the input file.Use default mk1mem = nkpt
 mpi_setup: With nkpt_me=48 and mk1mem = 48, ground state wf handled in core.
getng is called for the coarse grid:
 For input ecut=  1.700000E+01 best grid ngfft=      24      24     144
       max ecut=  1.730042E+01

 ==== FFT mesh ====
  FFT mesh divisions ........................    24   24  144
  Augmented FFT divisions ...................    25   25  144
  FFT algorithm .............................   112
  FFT cache size ............................    16
 getmpw: optimal value of mpw= 4133
getng is called for the fine grid:
 Using supplied coarse mesh as initial guess.
 For input ecut=  4.000000E+01 best grid ngfft=      36      36     225
       max ecut=  4.186274E+01

 ==== FFT mesh ====
  FFT mesh divisions ........................    36   36  225
  Augmented FFT divisions ...................    37   37  225
  FFT algorithm .............................   112
  FFT cache size ............................    16

 DATASET    1 : space group P3 1 2 (#149); Bravais hP (primitive hexag.)

 getdim_nloc : deduce lmnmax  =  18, lnmax  =   6,
                      lmnmaxso=  18, lnmaxso=   6.
memory : analysis of memory needs
================================================================================
 Values of the parameters that define the memory need for DATASET  1.
     intxc =       0    ionmov =       0      iscf =      17    lmnmax =      18
     lnmax =       6     mgfft =     144  mpssoang =       3    mqgrid =   10948
     natom =       3  nloc_mem =       2    nspden =       1   nspinor =       2
    nsppol =       1      nsym =       6    n1xccc =       1    ntypat =       2
    occopt =       1   xclevel =       1
-    mband =          28        mffmem =           1         mkmem =          51
       mpw =        4128          nfft =       82944          nkpt =          51
 PAW method is used; the additional fine FFT grid is defined by:
   mgfftf=       225    nfftf =    291600
================================================================================
P This job should need less than                     261.967 Mbytes of memory.
  Rough estimation (10% accuracy) of disk space for files :
_ WF disk file :     89.949 Mbytes ; DEN or POT disk file :      2.227 Mbytes.
================================================================================

 Biggest array : cg(disk), with     89.9493 MBytes.
 memana : allocated an array of     89.949 Mbytes, for testing purposes.
 memana: allocated     261.967Mbytes, for testing purposes. 
 The job will continue.

 DATASET    2 : space group P3 1 2 (#149); Bravais hP (primitive hexag.)

 getdim_nloc : deduce lmnmax  =  18, lnmax  =   6,
                      lmnmaxso=  18, lnmaxso=   6.
memory : analysis of memory needs
================================================================================
 Values of the parameters that define the memory need for DATASET  2.
     intxc =       0    ionmov =       0      iscf =      -2    lmnmax =      18
     lnmax =       6     mgfft =     144  mpssoang =       3    mqgrid =   10948
     natom =       3  nloc_mem =       2    nspden =       1   nspinor =       2
    nsppol =       1      nsym =       6    n1xccc =       1    ntypat =       2
    occopt =       1   xclevel =       1
-    mband =          32        mffmem =           1         mkmem =          48
       mpw =        4133          nfft =       82944          nkpt =          48
 PAW method is used; the additional fine FFT grid is defined by:
   mgfftf=       225    nfftf =    291600
================================================================================
P This job should need less than                     258.947 Mbytes of memory.
  Rough estimation (10% accuracy) of disk space for files :
_ WF disk file :     96.869 Mbytes ; DEN or POT disk file :      2.227 Mbytes.
================================================================================

 Biggest array : cg(disk), with     96.8692 MBytes.
 memana : allocated an array of     96.869 Mbytes, for testing purposes.
 memana: allocated     258.947Mbytes, for testing purposes. 
 The job will continue.
--------------------------------------------------------------------------------
------------- Echo of variables that govern the present computation ------------
--------------------------------------------------------------------------------
-
- outvars: echo of selected default values                                      
-   iomode0 =  0 , fftalg0 =112 , wfoptalg0 = 10
-
- outvars: echo of global parameters not present in the input file              
-  max_nthreads =    0
-
 -outvars: echo values of preprocessed input variables --------
            acell      6.0564706910E+00  6.0564706910E+00  3.8453782165E+01 Bohr
              amu      9.59400000E+01  3.20660000E+01
           diemac      1.20000000E+01
             ecut      1.70000000E+01 Hartree
           enunit1          0
           enunit2          1
-          fftalg         112
           getden1          0
           getden2         -1
             iscf1         17
             iscf2         -2
           istwfk1       1    0    0    0    0    0    0    0    1    0
                         0    0    0    0    0    0    0    0    0    0
                         0    0    0    0    0    0    0    0    0    0
                         0    0    0    0    0    0    0    0    0    0
                         0    0    0    0    0    0    0    0    0    0
           istwfk2       1    0    0    0    0    0    0    0    0    0
                         0    0    0    0    0    0    0    1    0    0
                         0    0    0    0    0    0    0    0    0    0
                         0    0    0    0    0    0    0    0    0    0
                         0    0    0    0    0    0    0    1
                       outvar_i_n : Printing only first  50 k-points.
              ixc           7
           jdtset        1    2
              kpt1     0.00000000E+00  0.00000000E+00  5.00000000E-01
                       6.25000000E-02  0.00000000E+00  5.00000000E-01
                       1.25000000E-01  0.00000000E+00  5.00000000E-01
                       1.87500000E-01  0.00000000E+00  5.00000000E-01
                       2.50000000E-01  0.00000000E+00  5.00000000E-01
                       3.12500000E-01  0.00000000E+00  5.00000000E-01
                       3.75000000E-01  0.00000000E+00  5.00000000E-01
                       4.37500000E-01  0.00000000E+00  5.00000000E-01
                       5.00000000E-01  0.00000000E+00  5.00000000E-01
                      -4.37500000E-01  0.00000000E+00  5.00000000E-01
                      -3.75000000E-01  0.00000000E+00  5.00000000E-01
                      -3.12500000E-01  0.00000000E+00  5.00000000E-01
                      -2.50000000E-01  0.00000000E+00  5.00000000E-01
                      -1.87500000E-01  0.00000000E+00  5.00000000E-01
                      -1.25000000E-01  0.00000000E+00  5.00000000E-01
                      -6.25000000E-02  0.00000000E+00  5.00000000E-01
                       6.25000000E-02  6.25000000E-02  5.00000000E-01
                       1.25000000E-01  6.25000000E-02  5.00000000E-01
                       1.87500000E-01  6.25000000E-02  5.00000000E-01
                       2.50000000E-01  6.25000000E-02  5.00000000E-01
                       3.12500000E-01  6.25000000E-02  5.00000000E-01
                       3.75000000E-01  6.25000000E-02  5.00000000E-01
                       4.37500000E-01  6.25000000E-02  5.00000000E-01
                       5.00000000E-01  6.25000000E-02  5.00000000E-01
                      -4.37500000E-01  6.25000000E-02  5.00000000E-01
                      -3.75000000E-01  6.25000000E-02  5.00000000E-01
                      -3.12500000E-01  6.25000000E-02  5.00000000E-01
                      -2.50000000E-01  6.25000000E-02  5.00000000E-01
                      -1.87500000E-01  6.25000000E-02  5.00000000E-01
                       1.25000000E-01  1.25000000E-01  5.00000000E-01
                       1.87500000E-01  1.25000000E-01  5.00000000E-01
                       2.50000000E-01  1.25000000E-01  5.00000000E-01
                       3.12500000E-01  1.25000000E-01  5.00000000E-01
                       3.75000000E-01  1.25000000E-01  5.00000000E-01
                       4.37500000E-01  1.25000000E-01  5.00000000E-01
                       5.00000000E-01  1.25000000E-01  5.00000000E-01
                      -4.37500000E-01  1.25000000E-01  5.00000000E-01
                      -3.75000000E-01  1.25000000E-01  5.00000000E-01
                      -3.12500000E-01  1.25000000E-01  5.00000000E-01
                       1.87500000E-01  1.87500000E-01  5.00000000E-01
                       2.50000000E-01  1.87500000E-01  5.00000000E-01
                       3.12500000E-01  1.87500000E-01  5.00000000E-01
                       3.75000000E-01  1.87500000E-01  5.00000000E-01
                       4.37500000E-01  1.87500000E-01  5.00000000E-01
                       5.00000000E-01  1.87500000E-01  5.00000000E-01
                      -4.37500000E-01  1.87500000E-01  5.00000000E-01
                       2.50000000E-01  2.50000000E-01  5.00000000E-01
                       3.12500000E-01  2.50000000E-01  5.00000000E-01
                       3.75000000E-01  2.50000000E-01  5.00000000E-01
                       4.37500000E-01  2.50000000E-01  5.00000000E-01
              kpt2     0.00000000E+00  0.00000000E+00  0.00000000E+00
                       2.94117647E-02  0.00000000E+00  0.00000000E+00
                       5.88235294E-02  0.00000000E+00  0.00000000E+00
                       8.82352941E-02  0.00000000E+00  0.00000000E+00
                       1.17647059E-01  0.00000000E+00  0.00000000E+00
                       1.47058824E-01  0.00000000E+00  0.00000000E+00
                       1.76470588E-01  0.00000000E+00  0.00000000E+00
                       2.05882353E-01  0.00000000E+00  0.00000000E+00
                       2.35294118E-01  0.00000000E+00  0.00000000E+00
                       2.64705882E-01  0.00000000E+00  0.00000000E+00
                       2.94117647E-01  0.00000000E+00  0.00000000E+00
                       3.23529412E-01  0.00000000E+00  0.00000000E+00
                       3.52941176E-01  0.00000000E+00  0.00000000E+00
                       3.82352941E-01  0.00000000E+00  0.00000000E+00
                       4.11764706E-01  0.00000000E+00  0.00000000E+00
                       4.41176471E-01  0.00000000E+00  0.00000000E+00
                       4.70588235E-01  0.00000000E+00  0.00000000E+00
                       5.00000000E-01  0.00000000E+00  0.00000000E+00
                       4.83333333E-01  3.33333333E-02  0.00000000E+00
                       4.66666667E-01  6.66666667E-02  0.00000000E+00
                       4.50000000E-01  1.00000000E-01  0.00000000E+00
                       4.33333333E-01  1.33333333E-01  0.00000000E+00
                       4.16666667E-01  1.66666667E-01  0.00000000E+00
                       4.00000000E-01  2.00000000E-01  0.00000000E+00
                       3.83333333E-01  2.33333333E-01  0.00000000E+00
                       3.66666667E-01  2.66666667E-01  0.00000000E+00
                       3.50000000E-01  3.00000000E-01  0.00000000E+00
                       3.33333333E-01  3.33333333E-01  0.00000000E+00
                       3.16666667E-01  3.16666667E-01  0.00000000E+00
                       3.00000000E-01  3.00000000E-01  0.00000000E+00
                       2.83333333E-01  2.83333333E-01  0.00000000E+00
                       2.66666667E-01  2.66666667E-01  0.00000000E+00
                       2.50000000E-01  2.50000000E-01  0.00000000E+00
                       2.33333333E-01  2.33333333E-01  0.00000000E+00
                       2.16666667E-01  2.16666667E-01  0.00000000E+00
                       2.00000000E-01  2.00000000E-01  0.00000000E+00
                       1.83333333E-01  1.83333333E-01  0.00000000E+00
                       1.66666667E-01  1.66666667E-01  0.00000000E+00
                       1.50000000E-01  1.50000000E-01  0.00000000E+00
                       1.33333333E-01  1.33333333E-01  0.00000000E+00
                       1.16666667E-01  1.16666667E-01  0.00000000E+00
                       1.00000000E-01  1.00000000E-01  0.00000000E+00
                       8.33333333E-02  8.33333333E-02  0.00000000E+00
                       6.66666667E-02  6.66666667E-02  0.00000000E+00
                       5.00000000E-02  5.00000000E-02  0.00000000E+00
                       3.33333333E-02  3.33333333E-02  0.00000000E+00
                       1.66666667E-02  1.66666667E-02  0.00000000E+00
                       0.00000000E+00  0.00000000E+00  0.00000000E+00
                       outvar_i_n : Printing only first  50 k-points.
           kptopt1          4
           kptopt2         -3
         kptrlatt       16    0    0      0   16    0      0    0    1
          kptrlen1     9.69035311E+01
          kptrlen2     3.00000000E+01
P           mkmem1         51
P           mkmem2         48
            natom           3
            nband1         28
            nband2         32
           nbdbuf1          0
           nbdbuf2          4
           ndtset           2
            ngfft          24      24     144
          ngfftdg          36      36     225
             nkpt1         51
             nkpt2         48
          nspinor           2
            nstep          10
             nsym           6
           ntypat           2
              occ      1.000000  1.000000  1.000000  1.000000  1.000000  1.000000
                       1.000000  1.000000  1.000000  1.000000  1.000000  1.000000
                       1.000000  1.000000  1.000000  1.000000  1.000000  1.000000
                       1.000000  1.000000  1.000000  1.000000  1.000000  1.000000
                       1.000000  1.000000  0.000000  0.000000
        pawcpxocc           2
        pawecutdg      4.00000000E+01 Hartree
          pawovlp      1.0000000000E+01
        pawspnorb           1
            rprim      1.0000000000E+00  0.0000000000E+00  0.0000000000E+00
                      -5.0000000000E-01  8.6602540378E-01  0.0000000000E+00
                       0.0000000000E+00  0.0000000000E+00  1.0000000000E+00
           shiftk1     0.00000000E+00  0.00000000E+00  5.00000000E-01
           shiftk2     5.00000000E-01  5.00000000E-01  5.00000000E-01
          spgroup         149
           symrel      1  0  0   0  1  0   0  0  1       0 -1  0  -1  0  0   0  0 -1
                       0  1  0  -1 -1  0   0  0  1       1  1  0   0 -1  0   0  0 -1
                      -1 -1  0   1  0  0   0  0  1      -1  0  0   1  1  0   0  0 -1
           toldfe1     1.00000000E-06 Hartree
           toldfe2     0.00000000E+00 Hartree
           tolwfr1     0.00000000E+00
           tolwfr2     1.00000000E-12
            typat      1  2  2
           useylm           1
              wtk1       0.00391    0.01172    0.01172    0.01172    0.01172    0.01172
                         0.01172    0.01172    0.01172    0.01172    0.01172    0.01172
                         0.01172    0.01172    0.01172    0.01172    0.02344    0.02344
                         0.02344    0.02344    0.02344    0.02344    0.02344    0.02344
                         0.02344    0.02344    0.02344    0.02344    0.02344    0.02344
                         0.02344    0.02344    0.02344    0.02344    0.02344    0.02344
                         0.02344    0.02344    0.02344    0.02344    0.02344    0.02344
                         0.02344    0.02344    0.02344    0.02344    0.02344    0.02344
                         0.02344    0.02344
              wtk2       1.00000    1.00000    1.00000    1.00000    1.00000    1.00000
                         1.00000    1.00000    1.00000    1.00000    1.00000    1.00000
                         1.00000    1.00000    1.00000    1.00000    1.00000    1.00000
                         1.00000    1.00000    1.00000    1.00000    1.00000    1.00000
                         1.00000    1.00000    1.00000    1.00000    1.00000    1.00000
                         1.00000    1.00000    1.00000    1.00000    1.00000    1.00000
                         1.00000    1.00000    1.00000    1.00000    1.00000    1.00000
                         1.00000    1.00000    1.00000    1.00000    1.00000    1.00000
                       outvars : Printing only first  50 k-points.
           xangst      1.2178034942E-27  7.0309917517E-28  1.6459063547E-19
                       1.6024731271E+00  9.2518829128E-01  1.6091498044E+00
                       1.6024731271E+00  9.2518829128E-01 -1.6091498044E+00
            xcart      2.3013150876E-27  1.3286648853E-27  3.1103122508E-19
                       3.0282353455E+00  1.7483524919E+00  3.0408524371E+00
                       3.0282353455E+00  1.7483524919E+00 -3.0408524371E+00
             xred      5.0663501458E-28  2.5331750729E-28  8.0884429974E-21
                       6.6666666667E-01  3.3333333333E-01  7.9078110549E-02
                       6.6666666667E-01  3.3333333333E-01 -7.9078110549E-02
            znucl       42.00000   16.00000

================================================================================

 chkinp: Checking input parameters for consistency, jdtset=   1.

 chkinp: Checking input parameters for consistency, jdtset=   2.
 DATA TYPE INFORMATION: 
 REAL:      Data type name: REAL(DP) 
            Kind value:      8
            Precision:      15
            Smallest nonnegligible quantity relative to 1:  0.22204460E-15
            Smallest positive number:                       0.22250739-307
            Largest representable number:                   0.17976931+309
 INTEGER:   Data type name: INTEGER(default) 
            Kind value: 4
            Bit size:   32
            Largest representable number: 2147483647
 LOGICAL:   Data type name: LOGICAL 
            Kind value: 4
 CHARACTER: Data type name: CHARACTER             Kind value: 1

  ==== OpenMP parallelism is OFF ====
 
  MPI-IO support is OFF

================================================================================
== DATASET  1 ==================================================================
-   nproc =    1


 getdim_nloc : deduce lmnmax  =  18, lnmax  =   6,
                      lmnmaxso=  18, lnmaxso=   6.
 Exchange-correlation functional for the present dataset will be:
  LDA: Perdew-Wang 92 LSD fit to Ceperley-Alder data - ixc=7
 Citation for XC functional:
  J.P.Perdew and Y.Wang, PRB 45, 13244 (1992)

 Unit cell volume ucvol=  1.2215435E+03 bohr^3
 Angles (23,13,12)=  9.00000000E+01  9.00000000E+01  1.20000000E+02 degrees

 Coarse grid specifications (used for wave-functions):

 getcut: wavevector=  0.0000  0.0000  0.0000  ngfft=  24  24 144
         ecut(hartree)=     17.000   => boxcut(ratio)=   2.01759

 Fine grid specifications (used for densities):

 getcut: wavevector=  0.0000  0.0000  0.0000  ngfft=  36  36 225
         ecut(hartree)=     40.000   => boxcut(ratio)=   2.04604
- pspini: atom type   1  psp file is ./Mo.LDA_PW-JTH.xml
- pspatm: opening atomic psp file    ./Mo.LDA_PW-JTH.xml
- pspatm : Reading pseudopotential header in XML form from ./Mo.LDA_PW-JTH.xml
 Pseudopotential format is: paw10
 basis_size (lnmax)=  6 (lmn_size= 18), orbitals=   0   0   1   1   2   2
 Spheres core radius: rc_sph= 2.20000000
 1 radial meshes are used:
  - mesh 1: r(i)=AA*[exp(BB*(i-1))-1], size= 846 , AA= 0.34789E-03 BB= 0.14611E-01
 Shapefunction is SIN type: shapef(r)=[sin(pi*r/rshp)/(pi*r/rshp)]**2
 Radius for shape functions =  1.90088266
 mmax=  846
 Radial grid used for partial waves is grid 1
 Radial grid used for projectors is grid 1
 Radial grid used for (t)core density is grid 1
 Radial grid used for Vloc is grid 1
 Radial grid used for pseudo valence density is grid 1
 Mesh size for Vloc has been set to  751 to avoid numerical noise.
 Compensation charge density is not taken into account in XC energy/potential
 beta integral value:      -0.356140E+02
 pspatm: atomic psp has been read  and splines computed

- pspini: atom type   2  psp file is ./S.LDA_PW-JTH.xml
- pspatm: opening atomic psp file    ./S.LDA_PW-JTH.xml
- pspatm : Reading pseudopotential header in XML form from ./S.LDA_PW-JTH.xml
 Pseudopotential format is: paw10
 basis_size (lnmax)=  4 (lmn_size=  8), orbitals=   0   0   1   1
 Spheres core radius: rc_sph= 1.91526572
 1 radial meshes are used:
  - mesh 1: r(i)=AA*[exp(BB*(i-1))-1], size=1400 , AA= 0.53252E-03 BB= 0.85203E-02
 Shapefunction is SIN type: shapef(r)=[sin(pi*r/rshp)/(pi*r/rshp)]**2
 Radius for shape functions =  1.60139517
 mmax= 1400
 Radial grid used for partial waves is grid 1
 Radial grid used for projectors is grid 1
 Radial grid used for (t)core density is grid 1
 Radial grid used for Vloc is grid 1
 Radial grid used for pseudo valence density is grid 1
 Mesh size for Vloc has been set to 1237 to avoid numerical noise.
 Compensation charge density is not taken into account in XC energy/potential
 beta integral value:      -0.626034E+01
 pspatm: atomic psp has been read  and splines computed

   8.10604473E+02                                ecore*ucvol(ha*bohr**3)
 ==== Info on pseudopotentials ====
  PAW calculation
  Number of pseudopotentials ..    2
  Number of types of atoms   ..    2
  Scalar calculation (no spin-orbit term)
  Nonlocal part applied using real spherical harmonics
  Max number of non-local projectors over l and type   2
  Highest angular momentum +1 .......   3
  Max number of (l,n)   components ..   6
  Max number of (l,m,n) components ..  18

 Pseudo-Core Charge Info: 
   Number of radial points for pseudo-core charge ..    1
   XC core-correction treatment (optnlxccc) ........    1
   Radius for pseudo-core charge for each type ..... 

  - Atom type    1 has pseudo-core radius .. 80.0794
  - Atom type    2 has pseudo-core radius .. 80.0000

 Info on the Q-grid used for form factors in spline form: 
   Number of q-points for radial functions ffspl ..   7138
   Number of q-points for vlspl ...................  10948
   vloc is computed in Reciprocal Space

  XC functional for type 1 is 7
  XC functional for type 2 is 7

 wfconv:    28 bands initialized randomly with npw=  4128, for ikpt=     1
 wfconv:    28 bands initialized randomly with npw=  4124, for ikpt=     2
 wfconv:    28 bands initialized randomly with npw=  4112, for ikpt=     3
 wfconv:    28 bands initialized randomly with npw=  4116, for ikpt=     4
 wfconv:    28 bands initialized randomly with npw=  4104, for ikpt=     5
 wfconv:    28 bands initialized randomly with npw=  4090, for ikpt=     6
 wfconv:    28 bands initialized randomly with npw=  4078, for ikpt=     7
 wfconv:    28 bands initialized randomly with npw=  4076, for ikpt=     8
 wfconv:    28 bands initialized randomly with npw=  4080, for ikpt=     9
 wfconv:    28 bands initialized randomly with npw=  4076, for ikpt=    10
 wfconv:    28 bands initialized randomly with npw=  4078, for ikpt=    11
 wfconv:    28 bands initialized randomly with npw=  4090, for ikpt=    12
 wfconv:    28 bands initialized randomly with npw=  4104, for ikpt=    13
 wfconv:    28 bands initialized randomly with npw=  4116, for ikpt=    14
 wfconv:    28 bands initialized randomly with npw=  4112, for ikpt=    15
 wfconv:    28 bands initialized randomly with npw=  4124, for ikpt=    16
 wfconv:    28 bands initialized randomly with npw=  4118, for ikpt=    17
 wfconv:    28 bands initialized randomly with npw=  4128, for ikpt=    18
 wfconv:    28 bands initialized randomly with npw=  4120, for ikpt=    19
 wfconv:    28 bands initialized randomly with npw=  4096, for ikpt=    20
 wfconv:    28 bands initialized randomly with npw=  4066, for ikpt=    21
 wfconv:    28 bands initialized randomly with npw=  4068, for ikpt=    22
 wfconv:    28 bands initialized randomly with npw=  4078, for ikpt=    23
 wfconv:    28 bands initialized randomly with npw=  4078, for ikpt=    24
 wfconv:    28 bands initialized randomly with npw=  4068, for ikpt=    25
 wfconv:    28 bands initialized randomly with npw=  4066, for ikpt=    26
 wfconv:    28 bands initialized randomly with npw=  4096, for ikpt=    27
 wfconv:    28 bands initialized randomly with npw=  4120, for ikpt=    28
 wfconv:    28 bands initialized randomly with npw=  4128, for ikpt=    29
 wfconv:    28 bands initialized randomly with npw=  4122, for ikpt=    30
 wfconv:    28 bands initialized randomly with npw=  4112, for ikpt=    31
 wfconv:    28 bands initialized randomly with npw=  4078, for ikpt=    32
 wfconv:    28 bands initialized randomly with npw=  4082, for ikpt=    33
 wfconv:    28 bands initialized randomly with npw=  4080, for ikpt=    34
 wfconv:    28 bands initialized randomly with npw=  4080, for ikpt=    35
 wfconv:    28 bands initialized randomly with npw=  4080, for ikpt=    36
 wfconv:    28 bands initialized randomly with npw=  4082, for ikpt=    37
 wfconv:    28 bands initialized randomly with npw=  4078, for ikpt=    38
 wfconv:    28 bands initialized randomly with npw=  4112, for ikpt=    39
 wfconv:    28 bands initialized randomly with npw=  4074, for ikpt=    40
 wfconv:    28 bands initialized randomly with npw=  4078, for ikpt=    41
 wfconv:    28 bands initialized randomly with npw=  4074, for ikpt=    42
 wfconv:    28 bands initialized randomly with npw=  4072, for ikpt=    43
 wfconv:    28 bands initialized randomly with npw=  4072, for ikpt=    44
 wfconv:    28 bands initialized randomly with npw=  4074, for ikpt=    45
 wfconv:    28 bands initialized randomly with npw=  4078, for ikpt=    46
 wfconv:    28 bands initialized randomly with npw=  4072, for ikpt=    47
 wfconv:    28 bands initialized randomly with npw=  4080, for ikpt=    48
 wfconv:    28 bands initialized randomly with npw=  4068, for ikpt=    49
 wfconv:    28 bands initialized randomly with npw=  4080, for ikpt=    50
_setup2: Arith. and geom. avg. npw (full set) are    4089.000    4088.952
 initro: for itypat=  1, take pseudo charge density from pp file
 initro: for itypat=  2, take pseudo charge density from pp file

================================================================================
 FFT (fine) grid used in SCF cycle:

 getcut: wavevector=  0.0000  0.0000  0.0000  ngfft=  36  36 225
         ecut(hartree)=     40.000   => boxcut(ratio)=   2.04604

--- !WARNING
src_file: m_ewald.F90
src_line: 145
message: |
    Very large box of G neighbors in ewald: you probably do not want to do this.
     If you have a metal consider setting dipdip 0.  ng =         30
...


--- !WARNING
src_file: m_ewald.F90
src_line: 145
message: |
    Very large box of G neighbors in ewald: you probably do not want to do this.
     If you have a metal consider setting dipdip 0.  ng =         40
...


--- !WARNING
src_file: m_ewald.F90
src_line: 145
message: |
    Very large box of G neighbors in ewald: you probably do not want to do this.
     If you have a metal consider setting dipdip 0.  ng =         50
...


--- !WARNING
src_file: mkdenpos.F90
src_line: 176
message: |
    Density went too small (lower than xc_denpos) at 62392 points
    and was set to xc_denpos =   1.00E-14. Lowest was  -0.17E-04.
    Likely due to too low boxcut or too low ecut for pseudopotential core charge.
...

 average electrostatic smooth potential [Ha] , [eV]      0.000000        0.000000

 ****** Psp strength Dij in Ha (atom      1) *****
 Component up-up:
   === REAL PART:
  -0.73515   0.16545   0.00000  -0.00000  -0.00000  -0.00000   0.00000   0.00000  -0.00000   0.00000   0.00016  -0.00000 ...
   0.16545   0.05035  -0.00000   0.00000   0.00000   0.00000  -0.00000  -0.00000   0.00000  -0.00000  -0.00003   0.00000 ...
   0.00000  -0.00000  -0.86189   0.00000  -0.00000   0.32540  -0.00000   0.00000  -0.00000  -0.00000  -0.00000  -0.00000 ...
  -0.00000   0.00000   0.00000  -0.86153  -0.00000  -0.00000   0.32510   0.00000  -0.00000   0.00000  -0.00000  -0.00000 ...
  -0.00000   0.00000  -0.00000  -0.00000  -0.86189   0.00000   0.00000   0.32540  -0.00045  -0.00000   0.00000  -0.00000 ...
  -0.00000   0.00000   0.32540  -0.00000   0.00000   1.21826  -0.00000   0.00000   0.00000   0.00000   0.00000   0.00000 ...
   0.00000  -0.00000  -0.00000   0.32510   0.00000  -0.00000   1.21818   0.00000   0.00000  -0.00000   0.00000   0.00000 ...
   0.00000  -0.00000   0.00000   0.00000   0.32540   0.00000   0.00000   1.21826   0.00037   0.00000  -0.00000   0.00000 ...
  -0.00000   0.00000  -0.00000  -0.00000  -0.00045   0.00000   0.00000   0.00037  -0.12221   0.00000   0.00000   0.00000 ...
   0.00000  -0.00000  -0.00000   0.00000  -0.00000   0.00000  -0.00000   0.00000   0.00000  -0.12221  -0.00000  -0.00000 ...
   0.00016  -0.00003  -0.00000  -0.00000   0.00000   0.00000   0.00000  -0.00000   0.00000  -0.00000  -0.12190  -0.00000 ...
  -0.00000   0.00000  -0.00000  -0.00000  -0.00000   0.00000   0.00000   0.00000   0.00000  -0.00000  -0.00000  -0.12221 ...
   ...  only 12  components have been written...
   === IMAGINARY PART:
  -0.00000  -0.00000  -0.00000  -0.00000  -0.00000  -0.00000  -0.00000  -0.00000  -0.00000  -0.00000  -0.00000  -0.00000 ...
   0.00000  -0.00000  -0.00000  -0.00000  -0.00000  -0.00000  -0.00000  -0.00000  -0.00000  -0.00000  -0.00000  -0.00000 ...
   0.00000   0.00000  -0.00000  -0.00000  -0.02996  -0.00000  -0.00000   0.02838  -0.00000  -0.00000  -0.00000  -0.00000 ...
   0.00000   0.00000   0.00000  -0.00000  -0.00000  -0.00000  -0.00000  -0.00000  -0.00000  -0.00000  -0.00000  -0.00000 ...
   0.00000   0.00000   0.02996   0.00000  -0.00000  -0.02838  -0.00000  -0.00000  -0.00000  -0.00000  -0.00000  -0.00000 ...
   0.00000   0.00000   0.00000   0.00000   0.02838  -0.00000  -0.00000  -0.02692  -0.00000  -0.00000  -0.00000  -0.00000 ...
   0.00000   0.00000   0.00000   0.00000   0.00000   0.00000  -0.00000  -0.00000  -0.00000  -0.00000  -0.00000  -0.00000 ...
   0.00000   0.00000  -0.02838   0.00000   0.00000   0.02692   0.00000  -0.00000  -0.00000  -0.00000  -0.00000  -0.00000 ...
   0.00000   0.00000   0.00000   0.00000   0.00000   0.00000   0.00000   0.00000  -0.00000  -0.00000  -0.00000  -0.00000 ...
   0.00000   0.00000   0.00000   0.00000   0.00000   0.00000   0.00000   0.00000   0.00000  -0.00000  -0.00000  -0.00150 ...
   0.00000   0.00000   0.00000   0.00000   0.00000   0.00000   0.00000   0.00000   0.00000   0.00000  -0.00000  -0.00000 ...
   0.00000   0.00000   0.00000   0.00000   0.00000   0.00000   0.00000   0.00000   0.00000   0.00150   0.00000  -0.00000 ...
   ...  only 12  components have been written...
 Component dwn-dwn:
   === REAL PART:
  -0.73515   0.16545   0.00000  -0.00000  -0.00000  -0.00000   0.00000   0.00000  -0.00000   0.00000   0.00016  -0.00000 ...
   0.16545   0.05035  -0.00000   0.00000   0.00000   0.00000  -0.00000  -0.00000   0.00000  -0.00000  -0.00003   0.00000 ...
   0.00000  -0.00000  -0.86189   0.00000  -0.00000   0.32540  -0.00000   0.00000  -0.00000  -0.00000  -0.00000  -0.00000 ...
  -0.00000   0.00000   0.00000  -0.86153  -0.00000  -0.00000   0.32510   0.00000  -0.00000   0.00000  -0.00000  -0.00000 ...
  -0.00000   0.00000  -0.00000  -0.00000  -0.86189   0.00000   0.00000   0.32540  -0.00045  -0.00000   0.00000  -0.00000 ...
  -0.00000   0.00000   0.32540  -0.00000   0.00000   1.21826  -0.00000   0.00000   0.00000   0.00000   0.00000   0.00000 ...
   0.00000  -0.00000  -0.00000   0.32510   0.00000  -0.00000   1.21818   0.00000   0.00000  -0.00000   0.00000   0.00000 ...
   0.00000  -0.00000   0.00000   0.00000   0.32540   0.00000   0.00000   1.21826   0.00037   0.00000  -0.00000   0.00000 ...
  -0.00000   0.00000  -0.00000  -0.00000  -0.00045   0.00000   0.00000   0.00037  -0.12221   0.00000   0.00000   0.00000 ...
   0.00000  -0.00000  -0.00000   0.00000  -0.00000   0.00000  -0.00000   0.00000   0.00000  -0.12221  -0.00000  -0.00000 ...
   0.00016  -0.00003  -0.00000  -0.00000   0.00000   0.00000   0.00000  -0.00000   0.00000  -0.00000  -0.12190  -0.00000 ...
  -0.00000   0.00000  -0.00000  -0.00000  -0.00000   0.00000   0.00000   0.00000   0.00000  -0.00000  -0.00000  -0.12221 ...
   ...  only 12  components have been written...
   === IMAGINARY PART:
  -0.00000  -0.00000  -0.00000  -0.00000  -0.00000  -0.00000  -0.00000  -0.00000  -0.00000  -0.00000  -0.00000  -0.00000 ...
   0.00000  -0.00000  -0.00000  -0.00000  -0.00000  -0.00000  -0.00000  -0.00000  -0.00000  -0.00000  -0.00000  -0.00000 ...
   0.00000   0.00000  -0.00000  -0.00000   0.02996  -0.00000  -0.00000  -0.02838  -0.00000  -0.00000  -0.00000  -0.00000 ...
   0.00000   0.00000   0.00000  -0.00000  -0.00000  -0.00000  -0.00000  -0.00000  -0.00000  -0.00000  -0.00000  -0.00000 ...
   0.00000   0.00000  -0.02996   0.00000  -0.00000   0.02838  -0.00000  -0.00000  -0.00000  -0.00000  -0.00000  -0.00000 ...
   0.00000   0.00000   0.00000   0.00000  -0.02838  -0.00000  -0.00000   0.02692  -0.00000  -0.00000  -0.00000  -0.00000 ...
   0.00000   0.00000   0.00000   0.00000   0.00000   0.00000  -0.00000  -0.00000  -0.00000  -0.00000  -0.00000  -0.00000 ...
   0.00000   0.00000   0.02838   0.00000   0.00000  -0.02692   0.00000  -0.00000  -0.00000  -0.00000  -0.00000  -0.00000 ...
   0.00000   0.00000   0.00000   0.00000   0.00000   0.00000   0.00000   0.00000  -0.00000  -0.00000  -0.00000  -0.00000 ...
   0.00000   0.00000   0.00000   0.00000   0.00000   0.00000   0.00000   0.00000   0.00000  -0.00000  -0.00000   0.00150 ...
   0.00000   0.00000   0.00000   0.00000   0.00000   0.00000   0.00000   0.00000   0.00000   0.00000  -0.00000  -0.00000 ...
   0.00000   0.00000   0.00000   0.00000   0.00000   0.00000   0.00000   0.00000   0.00000  -0.00150   0.00000  -0.00000 ...
   ...  only 12  components have been written...
 Component up-dwn:
   === REAL PART:
   0.00000   0.00000   0.00000   0.00000   0.00000   0.00000   0.00000   0.00000   0.00000   0.00000   0.00000   0.00000 ...
   0.00000   0.00000   0.00000   0.00000   0.00000   0.00000   0.00000   0.00000   0.00000   0.00000   0.00000   0.00000 ...
   0.00000   0.00000   0.00000   0.00000   0.00000   0.00000   0.00000   0.00000   0.00000   0.00000   0.00000   0.00000 ...
   0.00000   0.00000   0.00000   0.00000   0.02996   0.00000   0.00000  -0.02838   0.00000   0.00000   0.00000   0.00000 ...
   0.00000   0.00000   0.00000  -0.02996   0.00000   0.00000   0.02838   0.00000   0.00000   0.00000   0.00000   0.00000 ...
   0.00000   0.00000   0.00000   0.00000   0.00000   0.00000   0.00000   0.00000   0.00000   0.00000   0.00000   0.00000 ...
   0.00000   0.00000   0.00000   0.00000  -0.02838   0.00000   0.00000   0.02692   0.00000   0.00000   0.00000   0.00000 ...
   0.00000   0.00000   0.00000   0.02838   0.00000   0.00000  -0.02692   0.00000   0.00000   0.00000   0.00000   0.00000 ...
   0.00000   0.00000   0.00000   0.00000   0.00000   0.00000   0.00000   0.00000   0.00000  -0.00150   0.00000   0.00000 ...
   0.00000   0.00000   0.00000   0.00000   0.00000   0.00000   0.00000   0.00000   0.00150   0.00000   0.00000   0.00000 ...
   0.00000   0.00000   0.00000   0.00000   0.00000   0.00000   0.00000   0.00000   0.00000   0.00000   0.00000   0.00260 ...
   0.00000   0.00000   0.00000   0.00000   0.00000   0.00000   0.00000   0.00000   0.00000   0.00000  -0.00260   0.00000 ...
   ...  only 12  components have been written...
   === IMAGINARY PART:
  -0.00000  -0.00000  -0.00000  -0.00000  -0.00000  -0.00000  -0.00000  -0.00000  -0.00000  -0.00000  -0.00000  -0.00000 ...
   0.00000  -0.00000  -0.00000  -0.00000  -0.00000  -0.00000  -0.00000  -0.00000  -0.00000  -0.00000  -0.00000  -0.00000 ...
   0.00000   0.00000  -0.00000   0.02996  -0.00000  -0.00000  -0.02838  -0.00000  -0.00000  -0.00000  -0.00000  -0.00000 ...
   0.00000   0.00000  -0.02996  -0.00000  -0.00000   0.02838  -0.00000  -0.00000  -0.00000  -0.00000  -0.00000  -0.00000 ...
   0.00000   0.00000   0.00000   0.00000  -0.00000  -0.00000  -0.00000  -0.00000  -0.00000  -0.00000  -0.00000  -0.00000 ...
   0.00000   0.00000   0.00000  -0.02838   0.00000  -0.00000   0.02692  -0.00000  -0.00000  -0.00000  -0.00000  -0.00000 ...
   0.00000   0.00000   0.02838   0.00000   0.00000  -0.02692  -0.00000  -0.00000  -0.00000  -0.00000  -0.00000  -0.00000 ...
   0.00000   0.00000   0.00000   0.00000   0.00000   0.00000   0.00000  -0.00000  -0.00000  -0.00000  -0.00000  -0.00000 ...
   0.00000   0.00000   0.00000   0.00000   0.00000   0.00000   0.00000   0.00000  -0.00000  -0.00000  -0.00000   0.00150 ...
   0.00000   0.00000   0.00000   0.00000   0.00000   0.00000   0.00000   0.00000   0.00000  -0.00000   0.00260  -0.00000 ...
   0.00000   0.00000   0.00000   0.00000   0.00000   0.00000   0.00000   0.00000   0.00000  -0.00260  -0.00000  -0.00000 ...
   0.00000   0.00000   0.00000   0.00000   0.00000   0.00000   0.00000   0.00000  -0.00150   0.00000   0.00000  -0.00000 ...
   ...  only 12  components have been written...
 Component dwn-up:
   === REAL PART:
   0.00000   0.00000   0.00000   0.00000   0.00000   0.00000   0.00000   0.00000   0.00000   0.00000   0.00000   0.00000 ...
   0.00000   0.00000   0.00000   0.00000   0.00000   0.00000   0.00000   0.00000   0.00000   0.00000   0.00000   0.00000 ...
   0.00000   0.00000   0.00000   0.00000   0.00000   0.00000   0.00000   0.00000   0.00000   0.00000   0.00000   0.00000 ...
   0.00000   0.00000   0.00000   0.00000  -0.02996   0.00000   0.00000   0.02838   0.00000   0.00000   0.00000   0.00000 ...
   0.00000   0.00000   0.00000   0.02996   0.00000   0.00000  -0.02838   0.00000   0.00000   0.00000   0.00000   0.00000 ...
   0.00000   0.00000   0.00000   0.00000   0.00000   0.00000   0.00000   0.00000   0.00000   0.00000   0.00000   0.00000 ...
   0.00000   0.00000   0.00000   0.00000   0.02838   0.00000   0.00000  -0.02692   0.00000   0.00000   0.00000   0.00000 ...
   0.00000   0.00000   0.00000  -0.02838   0.00000   0.00000   0.02692   0.00000   0.00000   0.00000   0.00000   0.00000 ...
   0.00000   0.00000   0.00000   0.00000   0.00000   0.00000   0.00000   0.00000   0.00000   0.00150   0.00000   0.00000 ...
   0.00000   0.00000   0.00000   0.00000   0.00000   0.00000   0.00000   0.00000  -0.00150   0.00000   0.00000   0.00000 ...
   0.00000   0.00000   0.00000   0.00000   0.00000   0.00000   0.00000   0.00000   0.00000   0.00000   0.00000  -0.00260 ...
   0.00000   0.00000   0.00000   0.00000   0.00000   0.00000   0.00000   0.00000   0.00000   0.00000   0.00260   0.00000 ...
   ...  only 12  components have been written...
   === IMAGINARY PART:
  -0.00000  -0.00000  -0.00000  -0.00000  -0.00000  -0.00000  -0.00000  -0.00000  -0.00000  -0.00000  -0.00000  -0.00000 ...
   0.00000  -0.00000  -0.00000  -0.00000  -0.00000  -0.00000  -0.00000  -0.00000  -0.00000  -0.00000  -0.00000  -0.00000 ...
   0.00000   0.00000  -0.00000   0.02996  -0.00000  -0.00000  -0.02838  -0.00000  -0.00000  -0.00000  -0.00000  -0.00000 ...
   0.00000   0.00000  -0.02996  -0.00000  -0.00000   0.02838  -0.00000  -0.00000  -0.00000  -0.00000  -0.00000  -0.00000 ...
   0.00000   0.00000   0.00000   0.00000  -0.00000  -0.00000  -0.00000  -0.00000  -0.00000  -0.00000  -0.00000  -0.00000 ...
   0.00000   0.00000   0.00000  -0.02838   0.00000  -0.00000   0.02692  -0.00000  -0.00000  -0.00000  -0.00000  -0.00000 ...
   0.00000   0.00000   0.02838   0.00000   0.00000  -0.02692  -0.00000  -0.00000  -0.00000  -0.00000  -0.00000  -0.00000 ...
   0.00000   0.00000   0.00000   0.00000   0.00000   0.00000   0.00000  -0.00000  -0.00000  -0.00000  -0.00000  -0.00000 ...
   0.00000   0.00000   0.00000   0.00000   0.00000   0.00000   0.00000   0.00000  -0.00000  -0.00000  -0.00000   0.00150 ...
   0.00000   0.00000   0.00000   0.00000   0.00000   0.00000   0.00000   0.00000   0.00000  -0.00000   0.00260  -0.00000 ...
   0.00000   0.00000   0.00000   0.00000   0.00000   0.00000   0.00000   0.00000   0.00000  -0.00260  -0.00000  -0.00000 ...
   0.00000   0.00000   0.00000   0.00000   0.00000   0.00000   0.00000   0.00000  -0.00150   0.00000   0.00000  -0.00000 ...
   ...  only 12  components have been written...

 ****** Psp strength Dij in Ha (atom      3) *****
 Component up-up:
   === REAL PART:
   2.14422   0.14183   0.00000   0.00253  -0.00000  -0.00000  -0.00390   0.00000
   0.14183   7.24199   0.00000   0.00540  -0.00000  -0.00000  -0.01298   0.00000
   0.00000   0.00000   0.39872   0.00000  -0.00000  -0.01750  -0.00000   0.00000
   0.00253   0.00540   0.00000   0.39884  -0.00000  -0.00000  -0.01796   0.00000
  -0.00000  -0.00000  -0.00000  -0.00000   0.39872   0.00000   0.00000  -0.01750
  -0.00000  -0.00000  -0.01750  -0.00000   0.00000   5.01495   0.00000  -0.00000
  -0.00390  -0.01298  -0.00000  -0.01796   0.00000   0.00000   5.01709  -0.00000
   0.00000   0.00000   0.00000   0.00000  -0.01750  -0.00000  -0.00000   5.01495
   === IMAGINARY PART:
  -0.00000  -0.00000  -0.00000  -0.00000  -0.00000  -0.00000  -0.00000  -0.00000
   0.00000  -0.00000  -0.00000  -0.00000  -0.00000  -0.00000  -0.00000  -0.00000
   0.00000   0.00000  -0.00000  -0.00000  -0.00105  -0.00000  -0.00000  -0.00030
   0.00000   0.00000   0.00000  -0.00000  -0.00000  -0.00000  -0.00000  -0.00000
   0.00000   0.00000   0.00105   0.00000  -0.00000   0.00030  -0.00000  -0.00000
   0.00000   0.00000   0.00000   0.00000  -0.00030  -0.00000  -0.00000  -0.00057
   0.00000   0.00000   0.00000   0.00000   0.00000   0.00000  -0.00000  -0.00000
   0.00000   0.00000   0.00030   0.00000   0.00000   0.00057   0.00000  -0.00000
 Component dwn-dwn:
   === REAL PART:
   2.14422   0.14183   0.00000   0.00253  -0.00000  -0.00000  -0.00390   0.00000
   0.14183   7.24199   0.00000   0.00540  -0.00000  -0.00000  -0.01298   0.00000
   0.00000   0.00000   0.39872   0.00000  -0.00000  -0.01750  -0.00000   0.00000
   0.00253   0.00540   0.00000   0.39884  -0.00000  -0.00000  -0.01796   0.00000
  -0.00000  -0.00000  -0.00000  -0.00000   0.39872   0.00000   0.00000  -0.01750
  -0.00000  -0.00000  -0.01750  -0.00000   0.00000   5.01495   0.00000  -0.00000
  -0.00390  -0.01298  -0.00000  -0.01796   0.00000   0.00000   5.01709  -0.00000
   0.00000   0.00000   0.00000   0.00000  -0.01750  -0.00000  -0.00000   5.01495
   === IMAGINARY PART:
  -0.00000  -0.00000  -0.00000  -0.00000  -0.00000  -0.00000  -0.00000  -0.00000
   0.00000  -0.00000  -0.00000  -0.00000  -0.00000  -0.00000  -0.00000  -0.00000
   0.00000   0.00000  -0.00000  -0.00000   0.00105  -0.00000  -0.00000   0.00030
   0.00000   0.00000   0.00000  -0.00000  -0.00000  -0.00000  -0.00000  -0.00000
   0.00000   0.00000  -0.00105   0.00000  -0.00000  -0.00030  -0.00000  -0.00000
   0.00000   0.00000   0.00000   0.00000   0.00030  -0.00000  -0.00000   0.00057
   0.00000   0.00000   0.00000   0.00000   0.00000   0.00000  -0.00000  -0.00000
   0.00000   0.00000  -0.00030   0.00000   0.00000  -0.00057   0.00000  -0.00000
 Component up-dwn:
   === REAL PART:
   0.00000   0.00000   0.00000   0.00000   0.00000   0.00000   0.00000   0.00000
   0.00000   0.00000   0.00000   0.00000   0.00000   0.00000   0.00000   0.00000
   0.00000   0.00000   0.00000   0.00000   0.00000   0.00000   0.00000   0.00000
   0.00000   0.00000   0.00000   0.00000   0.00105   0.00000   0.00000   0.00030
   0.00000   0.00000   0.00000  -0.00105   0.00000   0.00000  -0.00030   0.00000
   0.00000   0.00000   0.00000   0.00000   0.00000   0.00000   0.00000   0.00000
   0.00000   0.00000   0.00000   0.00000   0.00030   0.00000   0.00000   0.00057
   0.00000   0.00000   0.00000  -0.00030   0.00000   0.00000  -0.00057   0.00000
   === IMAGINARY PART:
  -0.00000  -0.00000  -0.00000  -0.00000  -0.00000  -0.00000  -0.00000  -0.00000
   0.00000  -0.00000  -0.00000  -0.00000  -0.00000  -0.00000  -0.00000  -0.00000
   0.00000   0.00000  -0.00000   0.00105  -0.00000  -0.00000   0.00030  -0.00000
   0.00000   0.00000  -0.00105  -0.00000  -0.00000  -0.00030  -0.00000  -0.00000
   0.00000   0.00000   0.00000   0.00000  -0.00000  -0.00000  -0.00000  -0.00000
   0.00000   0.00000   0.00000   0.00030   0.00000  -0.00000   0.00057  -0.00000
   0.00000   0.00000  -0.00030   0.00000   0.00000  -0.00057  -0.00000  -0.00000
   0.00000   0.00000   0.00000   0.00000   0.00000   0.00000   0.00000  -0.00000
 Component dwn-up:
   === REAL PART:
   0.00000   0.00000   0.00000   0.00000   0.00000   0.00000   0.00000   0.00000
   0.00000   0.00000   0.00000   0.00000   0.00000   0.00000   0.00000   0.00000
   0.00000   0.00000   0.00000   0.00000   0.00000   0.00000   0.00000   0.00000
   0.00000   0.00000   0.00000   0.00000  -0.00105   0.00000   0.00000  -0.00030
   0.00000   0.00000   0.00000   0.00105   0.00000   0.00000   0.00030   0.00000
   0.00000   0.00000   0.00000   0.00000   0.00000   0.00000   0.00000   0.00000
   0.00000   0.00000   0.00000   0.00000  -0.00030   0.00000   0.00000  -0.00057
   0.00000   0.00000   0.00000   0.00030   0.00000   0.00000   0.00057   0.00000
   === IMAGINARY PART:
  -0.00000  -0.00000  -0.00000  -0.00000  -0.00000  -0.00000  -0.00000  -0.00000
   0.00000  -0.00000  -0.00000  -0.00000  -0.00000  -0.00000  -0.00000  -0.00000
   0.00000   0.00000  -0.00000   0.00105  -0.00000  -0.00000   0.00030  -0.00000
   0.00000   0.00000  -0.00105  -0.00000  -0.00000  -0.00030  -0.00000  -0.00000
   0.00000   0.00000   0.00000   0.00000  -0.00000  -0.00000  -0.00000  -0.00000
   0.00000   0.00000   0.00000   0.00030   0.00000  -0.00000   0.00057  -0.00000
   0.00000   0.00000  -0.00030   0.00000   0.00000  -0.00057  -0.00000  -0.00000
   0.00000   0.00000   0.00000   0.00000   0.00000   0.00000   0.00000  -0.00000


 ITER STEP NUMBER     1
 vtorho : nnsclo_now=2, note that nnsclo,dbl_nnsclo,istep=0 0 1
 non-scf iterations; kpt #     1  , k= (  0.00000  0.00000  0.50000  ), band residuals:
 res:  1.06E+00  4.11E+00  2.64E+00  3.05E+00  3.46E+00  2.77E+00  2.22E+00  3.11E+00
 res:  1.49E+00  1.15E+00  2.68E+00  1.53E+00  8.09E-01  7.38E-01  9.35E-01  3.10E-01
 res:  4.93E-01  3.57E-01  7.56E-01  5.19E-01  1.17E+00  3.50E-01  2.67E-01  3.66E-01
 res:  4.13E-01  6.77E-01  3.76E-01  3.05E-01
 ene: -2.79E+00 -1.96E+00 -1.22E+00 -1.13E+00 -1.03E+00 -9.89E-01 -8.87E-01 -8.35E-01
 ene: -4.74E-01 -4.36E-01 -3.97E-01 -3.69E-01 -1.91E-01 -1.54E-01 -9.73E-02 -8.63E-02
 ene: -5.70E-02 -2.96E-02 -2.04E-02  3.15E-02  5.60E-02  1.10E-01  1.64E-01  2.52E-01
 ene:  3.21E-01  4.57E-01  7.78E-01  1.47E+00
 res:  1.88E+00  1.26E-01  2.69E-01  7.92E-02  1.38E-01  1.02E-01  3.40E-02  9.64E-02
 res:  2.42E-01  1.80E-01  9.11E-02  1.09E-01  5.99E-02  1.38E-01  6.06E-02  2.54E-02
 res:  6.76E-02  7.55E-02  4.55E-02  8.84E-02  9.50E-02  6.66E-02  1.14E-01  9.82E-02
 res:  1.22E-01  1.32E-01  1.01E-01  4.19E-01
 ene: -2.23E+00 -2.12E+00 -1.34E+00 -1.32E+00 -1.27E+00 -1.26E+00 -1.25E+00 -1.23E+00
 ene: -6.06E-01 -5.90E-01 -5.64E-01 -5.52E-01 -2.90E-01 -2.83E-01 -1.68E-01 -1.67E-01
 ene: -1.61E-01 -1.57E-01 -1.50E-01 -1.33E-01 -1.24E-01 -1.09E-01 -8.10E-02 -5.61E-02
 ene: -2.91E-02  4.51E-02  8.28E-02  2.32E-01
 vtowfk : number of one-way 3D ffts skipped in vtowfk until now =2
     eigenvalues (hartree) for   28  bands
              after    3 non-SCF iterations with    4 CG line minimizations
 -2.2333E+00 -2.1163E+00 -1.3438E+00 -1.3226E+00 -1.2676E+00 -1.2566E+00
 -1.2530E+00 -1.2335E+00 -6.0634E-01 -5.9015E-01 -5.6362E-01 -5.5194E-01
 -2.8983E-01 -2.8269E-01 -1.6836E-01 -1.6703E-01 -1.6062E-01 -1.5713E-01
 -1.4977E-01 -1.3284E-01 -1.2402E-01 -1.0858E-01 -8.0985E-02 -5.6092E-02
 -2.9128E-02  4.5125E-02  8.2800E-02  2.3175E-01
 non-scf iterations; kpt #     2  , k= (  0.06250  0.00000  0.50000  ), band residuals:
 res:  1.63E+00  2.27E+00  2.37E+00  3.20E+00  2.65E+00  2.73E+00  3.16E+00  1.92E+00
 res:  9.91E-01  5.20E-01  6.86E-01  3.15E-01  6.47E-01  7.49E-01  7.12E-01  6.52E-01
 res:  4.66E-01  3.90E-01  3.64E-01  5.18E-01  4.15E-01  3.96E-01  1.92E-01  2.62E-01
 res:  2.71E-01  3.09E-01  3.23E-01  2.99E-01
 ene: -2.12E+00 -1.87E+00 -1.15E+00 -1.07E+00 -9.67E-01 -9.20E-01 -8.80E-01 -8.23E-01
 ene: -5.07E-01 -4.81E-01 -4.61E-01 -4.03E-01 -2.19E-01 -1.77E-01 -1.13E-01 -1.08E-01
 ene: -9.93E-02 -7.78E-02 -4.68E-02 -2.58E-02  2.18E-02  3.84E-02  1.02E-01  1.42E-01
 ene:  2.40E-01  3.65E-01  4.39E-01  8.41E-01
 res:  3.27E-01  1.39E-01  1.79E-01  7.24E-02  5.99E-02  8.32E-02  7.12E-02  1.08E-01
 res:  4.30E-02  1.41E-01  9.60E-02  9.17E-02  2.56E-02  3.64E-02  3.37E-02  2.53E-02
 res:  3.57E-02  1.72E-02  2.86E-02  3.01E-02  4.19E-02  4.20E-02  9.69E-02  9.29E-02
 res:  1.16E-01  6.52E-02  1.55E-01  8.37E-02
 ene: -2.24E+00 -2.22E+00 -1.35E+00 -1.33E+00 -1.27E+00 -1.26E+00 -1.26E+00 -1.24E+00
 ene: -6.15E-01 -5.89E-01 -5.68E-01 -5.66E-01 -2.92E-01 -2.87E-01 -1.76E-01 -1.73E-01
 ene: -1.70E-01 -1.66E-01 -1.55E-01 -1.42E-01 -1.33E-01 -1.26E-01 -1.13E-01 -8.75E-02
 ene: -4.54E-02  2.61E-03  4.13E-02  1.04E-01
 vtowfk : number of one-way 3D ffts skipped in vtowfk until now =4
     eigenvalues (hartree) for   28  bands
              after    3 non-SCF iterations with    4 CG line minimizations
 -2.2370E+00 -2.2200E+00 -1.3480E+00 -1.3301E+00 -1.2658E+00 -1.2599E+00
 -1.2567E+00 -1.2408E+00 -6.1452E-01 -5.8883E-01 -5.6830E-01 -5.6560E-01
 -2.9156E-01 -2.8705E-01 -1.7584E-01 -1.7284E-01 -1.7027E-01 -1.6595E-01
 -1.5483E-01 -1.4185E-01 -1.3348E-01 -1.2558E-01 -1.1339E-01 -8.7530E-02
 -4.5446E-02  2.6139E-03  4.1342E-02  1.0419E-01
 non-scf iterations; kpt #     3  , k= (  0.12500  0.00000  0.50000  ), band residuals:
 res:  1.07E+00  2.85E+00  3.48E+00  2.62E+00  7.94E-01  3.12E+00  2.64E+00  1.02E+00
 res:  3.01E+00  6.44E-01  5.23E-01  6.19E-01  6.38E-01  5.80E-01  5.41E-01  4.70E-01
 res:  5.28E-01  3.56E-01  2.44E-01  3.21E-01  3.51E-01  6.55E-01  3.50E-01  2.55E-01
 res:  3.39E-01  4.08E-01  2.99E-01  4.36E-01
 ene: -2.38E+00 -1.83E+00 -1.12E+00 -1.05E+00 -9.99E-01 -9.38E-01 -8.90E-01 -8.16E-01
 ene: -5.13E-01 -4.51E-01 -4.31E-01 -3.84E-01 -1.86E-01 -1.55E-01 -1.06E-01 -8.80E-02
 ene: -8.16E-02 -4.48E-02 -2.40E-02  4.70E-03  1.66E-02  4.88E-02  1.18E-01  1.32E-01
 ene:  2.24E-01  2.58E-01  3.37E-01  6.59E-01
 res:  1.28E+00  1.07E-01  5.77E-02  1.02E-01  2.52E-01  4.31E-02  6.85E-02  1.14E-01
 res:  1.68E-01  6.42E-02  1.48E-01  2.09E-01  3.12E-02  4.79E-02  2.05E-02  7.68E-02
 res:  4.40E-02  5.94E-02  5.60E-02  6.88E-02  9.17E-02  6.95E-02  1.06E-01  1.18E-01
 res:  8.31E-02  1.35E-01  2.14E-01  2.65E-01
 ene: -2.23E+00 -2.19E+00 -1.35E+00 -1.33E+00 -1.27E+00 -1.26E+00 -1.26E+00 -1.24E+00
 ene: -6.08E-01 -6.01E-01 -5.70E-01 -5.46E-01 -2.85E-01 -2.71E-01 -1.88E-01 -1.87E-01
 ene: -1.79E-01 -1.67E-01 -1.52E-01 -1.49E-01 -1.40E-01 -1.27E-01 -1.06E-01 -9.37E-02
 ene: -5.15E-02 -3.95E-02  2.84E-02  1.40E-01
 vtowfk : number of one-way 3D ffts skipped in vtowfk until now =6
     eigenvalues (hartree) for   28  bands
              after    3 non-SCF iterations with    4 CG line minimizations
 -2.2321E+00 -2.1859E+00 -1.3490E+00 -1.3262E+00 -1.2673E+00 -1.2631E+00
 -1.2603E+00 -1.2426E+00 -6.0825E-01 -6.0104E-01 -5.6958E-01 -5.4621E-01
 -2.8525E-01 -2.7051E-01 -1.8824E-01 -1.8703E-01 -1.7949E-01 -1.6712E-01
 -1.5181E-01 -1.4854E-01 -1.3980E-01 -1.2704E-01 -1.0620E-01 -9.3734E-02
 -5.1543E-02 -3.9484E-02  2.8429E-02  1.3962E-01
 non-scf iterations; kpt #     4  , k= (  0.18750  0.00000  0.50000  ), band residuals:
 res:  1.17E+00  3.83E+00  2.72E+00  3.21E+00  3.54E+00  1.35E+00  2.57E+00  3.59E+00
 res:  9.64E-01  1.66E+00  1.22E+00  5.24E-01  1.18E+00  7.76E-01  7.25E-01  4.83E-01
 res:  9.56E-01  6.17E-01  7.62E-01  5.48E-01  8.58E-01  4.89E-01  7.72E-01  9.05E-01
 res:  9.81E-01  9.91E-01  2.93E-01  1.02E+00
 ene: -2.85E+00 -1.99E+00 -1.10E+00 -1.06E+00 -9.85E-01 -9.34E-01 -8.84E-01 -8.41E-01
 ene: -4.71E-01 -4.51E-01 -4.01E-01 -3.28E-01 -1.83E-01 -1.53E-01 -9.09E-02 -7.55E-02
 ene: -6.68E-02 -1.81E-02 -1.45E-02  3.09E-02  5.24E-02  1.18E-01  1.42E-01  2.08E-01
 ene:  2.73E-01  4.34E-01  6.42E-01  1.87E+00
 res:  2.20E+00  1.11E-01  6.55E-02  4.66E-02  7.92E-02  6.81E-02  6.08E-02  1.35E-01
 res:  1.65E-01  1.65E-01  5.88E-02  1.60E-01  1.94E-01  9.62E-02  4.26E-02  4.29E-02
 res:  8.57E-02  8.23E-02  3.05E-02  7.18E-02  6.76E-02  9.33E-02  8.46E-02  1.10E-01
 res:  1.25E-01  1.10E-01  9.24E-02  8.09E-01
 ene: -2.24E+00 -2.10E+00 -1.35E+00 -1.34E+00 -1.27E+00 -1.27E+00 -1.26E+00 -1.25E+00
 ene: -5.93E-01 -5.82E-01 -5.60E-01 -5.47E-01 -2.73E-01 -2.61E-01 -2.09E-01 -2.02E-01
 ene: -1.99E-01 -1.90E-01 -1.57E-01 -1.51E-01 -1.41E-01 -1.34E-01 -1.22E-01 -8.24E-02
 ene: -4.31E-02 -9.76E-03  5.60E-02  3.02E-01
 vtowfk : number of one-way 3D ffts skipped in vtowfk until now =8
     eigenvalues (hartree) for   28  bands
              after    3 non-SCF iterations with    4 CG line minimizations
 -2.2353E+00 -2.0988E+00 -1.3546E+00 -1.3417E+00 -1.2696E+00 -1.2659E+00
 -1.2563E+00 -1.2503E+00 -5.9321E-01 -5.8235E-01 -5.6043E-01 -5.4725E-01
 -2.7296E-01 -2.6147E-01 -2.0868E-01 -2.0181E-01 -1.9915E-01 -1.8999E-01
 -1.5669E-01 -1.5134E-01 -1.4125E-01 -1.3395E-01 -1.2157E-01 -8.2447E-02
 -4.3111E-02 -9.7621E-03  5.5980E-02  3.0208E-01
 non-scf iterations; kpt #     5  , k= (  0.25000  0.00000  0.50000  ), band residuals:
 res:  1.28E+00  2.44E+00  3.94E+00  2.46E+00  3.82E+00  2.76E+00  3.05E+00  7.67E-01
 res:  1.19E+00  8.76E-01  7.42E-01  6.36E-01  8.68E-01  8.17E-01  6.72E-01  5.22E-01
 res:  3.37E-01  5.41E-01  3.67E-01  1.21E+00  4.79E-01  9.54E-01  4.33E-01  5.10E-01
 res:  7.43E-01  7.16E-01  6.47E-01  5.08E-01
 ene: -2.44E+00 -1.87E+00 -1.22E+00 -1.07E+00 -9.64E-01 -9.05E-01 -8.77E-01 -7.10E-01
 ene: -5.01E-01 -4.30E-01 -4.01E-01 -3.36E-01 -1.86E-01 -1.56E-01 -1.39E-01 -1.20E-01
 ene: -7.99E-02 -5.32E-02 -1.65E-02 -5.81E-03  5.87E-03  7.52E-02  1.09E-01  1.79E-01
 ene:  2.35E-01  2.73E-01  4.50E-01  9.17E-01
 res:  1.71E+00  9.09E-02  3.43E-01  3.75E-02  8.88E-02  8.06E-02  8.39E-02  2.01E-01
 res:  1.13E-01  8.91E-02  1.78E-01  1.11E-01  4.26E-02  4.42E-02  3.33E-02  4.89E-02
 res:  6.72E-02  7.34E-02  5.19E-02  4.48E-02  2.87E-02  6.50E-02  7.45E-02  1.41E-01
 res:  2.06E-01  9.16E-02  1.36E-01  4.29E-01
 ene: -2.24E+00 -2.16E+00 -1.35E+00 -1.35E+00 -1.27E+00 -1.26E+00 -1.24E+00 -1.23E+00
 ene: -5.87E-01 -5.73E-01 -5.54E-01 -5.45E-01 -2.65E-01 -2.62E-01 -2.29E-01 -2.24E-01
 ene: -2.19E-01 -2.13E-01 -1.65E-01 -1.60E-01 -1.48E-01 -1.43E-01 -1.37E-01 -1.15E-01
 ene: -7.68E-02 -3.63E-02  8.60E-02  1.79E-01
 vtowfk : number of one-way 3D ffts skipped in vtowfk until now =10
     eigenvalues (hartree) for   28  bands
              after    3 non-SCF iterations with    4 CG line minimizations
 -2.2359E+00 -2.1621E+00 -1.3495E+00 -1.3451E+00 -1.2702E+00 -1.2649E+00
 -1.2396E+00 -1.2319E+00 -5.8716E-01 -5.7346E-01 -5.5439E-01 -5.4490E-01
 -2.6497E-01 -2.6243E-01 -2.2931E-01 -2.2354E-01 -2.1892E-01 -2.1334E-01
 -1.6495E-01 -1.6024E-01 -1.4800E-01 -1.4264E-01 -1.3678E-01 -1.1465E-01
 -7.6754E-02 -3.6252E-02  8.5966E-02  1.7923E-01
 non-scf iterations; kpt #     6  , k= (  0.31250  0.00000  0.50000  ), band residuals:
 res:  1.30E+00  3.51E+00  1.63E+00  2.18E+00  2.23E+00  2.40E+00  2.36E+00  3.29E+00
 res:  3.48E+00  2.17E+00  2.97E+00  8.64E-01  2.88E+00  2.12E+00  1.27E+00  1.20E+00
 res:  1.43E+00  1.00E+00  1.09E+00  5.56E-01  1.11E+00  1.12E+00  1.18E+00  6.26E-01
 res:  2.50E+00  1.84E+00  1.22E+00  4.74E-01
 ene: -3.71E+00 -1.98E+00 -1.10E+00 -9.80E-01 -9.43E-01 -9.07E-01 -8.54E-01 -8.09E-01
 ene: -3.12E-01 -2.66E-01 -2.01E-01 -1.60E-01 -4.98E-02 -4.10E-03  3.18E-02  4.06E-02
 ene:  9.11E-02  1.14E-01  1.34E-01  2.01E-01  2.28E-01  2.47E-01  3.23E-01  3.68E-01
 ene:  4.12E-01  4.56E-01  5.37E-01  3.44E+00
 res:  3.04E+00  1.40E-01  8.42E-02  5.80E-02  1.01E-01  5.55E-02  5.24E-02  1.22E-01
 res:  1.24E-01  1.30E-01  1.72E-01  1.14E-01  1.32E-01  4.61E-02  8.05E-02  1.17E-01
 res:  4.33E-02  1.07E-01  7.50E-02  6.83E-02  6.38E-02  1.05E-01  8.71E-02  9.98E-02
 res:  1.16E-01  1.07E-01  1.13E-01  1.45E+00
 ene: -2.23E+00 -2.00E+00 -1.35E+00 -1.34E+00 -1.27E+00 -1.26E+00 -1.26E+00 -1.25E+00
 ene: -5.67E-01 -5.56E-01 -5.42E-01 -5.32E-01 -2.66E-01 -2.54E-01 -2.35E-01 -2.28E-01
 ene: -2.24E-01 -2.15E-01 -1.68E-01 -1.58E-01 -1.37E-01 -1.21E-01 -1.08E-01 -9.57E-02
 ene: -6.67E-02  5.29E-02  7.66E-02  4.95E-01
 vtowfk : number of one-way 3D ffts skipped in vtowfk until now =12
     eigenvalues (hartree) for   28  bands
              after    3 non-SCF iterations with    4 CG line minimizations
 -2.2303E+00 -2.0045E+00 -1.3540E+00 -1.3398E+00 -1.2678E+00 -1.2634E+00
 -1.2581E+00 -1.2492E+00 -5.6684E-01 -5.5559E-01 -5.4196E-01 -5.3230E-01
 -2.6609E-01 -2.5440E-01 -2.3543E-01 -2.2830E-01 -2.2448E-01 -2.1522E-01
 -1.6836E-01 -1.5767E-01 -1.3698E-01 -1.2078E-01 -1.0817E-01 -9.5740E-02
 -6.6717E-02  5.2934E-02  7.6642E-02  4.9522E-01
 non-scf iterations; kpt #     7  , k= (  0.37500  0.00000  0.50000  ), band residuals:
 res:  1.23E+00  4.92E+00  2.37E+00  2.65E+00  2.92E+00  2.45E+00  3.06E+00  3.28E+00
 res:  2.99E+00  3.23E+00  2.68E+00  1.68E+00  1.86E+00  1.20E+00  1.41E+00  1.31E+00
 res:  8.72E-01  1.34E+00  1.24E+00  1.17E+00  7.56E-01  1.15E+00  1.45E+00  1.09E+00
 res:  1.15E+00  2.08E+00  9.56E-01  1.73E+00
 ene: -3.60E+00 -1.96E+00 -1.05E+00 -9.97E-01 -9.84E-01 -9.20E-01 -9.04E-01 -7.92E-01
 ene: -3.50E-01 -2.69E-01 -2.17E-01 -1.66E-01 -7.25E-02 -4.87E-02 -1.67E-02  3.78E-02
 ene:  7.97E-02  9.39E-02  1.25E-01  1.85E-01  2.12E-01  2.30E-01  2.73E-01  3.30E-01
 ene:  4.13E-01  4.97E-01  5.83E-01  4.35E+00
 res:  3.44E+00  5.79E-02  6.02E-02  7.60E-02  7.43E-02  8.52E-02  8.10E-02  1.28E-01
 res:  7.64E-02  1.01E-01  1.11E-01  1.09E-01  9.25E-02  7.83E-02  4.68E-02  5.21E-02
 res:  6.65E-02  1.37E-01  7.53E-02  9.79E-02  1.19E-01  1.01E-01  1.58E-01  1.39E-01
 res:  1.57E-01  7.99E-02  1.13E-01  1.25E+00
 ene: -2.24E+00 -1.92E+00 -1.35E+00 -1.34E+00 -1.27E+00 -1.26E+00 -1.25E+00 -1.24E+00
 ene: -5.54E-01 -5.41E-01 -5.32E-01 -5.25E-01 -2.81E-01 -2.74E-01 -2.42E-01 -2.37E-01
 ene: -2.16E-01 -2.04E-01 -1.68E-01 -1.53E-01 -1.41E-01 -1.20E-01 -9.64E-02 -8.11E-02
 ene: -3.88E-02  1.90E-02  1.14E-01  5.64E-01
 vtowfk : number of one-way 3D ffts skipped in vtowfk until now =14
     eigenvalues (hartree) for   28  bands
              after    3 non-SCF iterations with    4 CG line minimizations
 -2.2358E+00 -1.9216E+00 -1.3524E+00 -1.3440E+00 -1.2676E+00 -1.2638E+00
 -1.2537E+00 -1.2367E+00 -5.5386E-01 -5.4118E-01 -5.3201E-01 -5.2492E-01
 -2.8146E-01 -2.7390E-01 -2.4184E-01 -2.3725E-01 -2.1629E-01 -2.0419E-01
 -1.6846E-01 -1.5279E-01 -1.4062E-01 -1.1984E-01 -9.6431E-02 -8.1076E-02
 -3.8777E-02  1.8978E-02  1.1382E-01  5.6388E-01
 non-scf iterations; kpt #     8  , k= (  0.43750  0.00000  0.50000  ), band residuals:
 res:  1.26E+00  3.76E+00  2.78E+00  3.71E+00  3.68E+00  3.20E+00  3.30E+00  3.04E+00
 res:  3.18E+00  2.54E+00  2.01E+00  1.11E+00  1.24E+00  1.56E+00  1.47E+00  9.82E-01
 res:  1.11E+00  6.53E-01  9.10E-01  5.24E-01  1.17E+00  1.07E+00  4.13E-01  7.34E-01
 res:  8.22E-01  4.03E-01  4.92E-01  8.57E-01
 ene: -3.22E+00 -1.90E+00 -1.10E+00 -1.07E+00 -1.05E+00 -9.51E-01 -8.73E-01 -8.07E-01
 ene: -4.28E-01 -4.10E-01 -3.59E-01 -2.79E-01 -1.95E-01 -1.74E-01 -1.24E-01 -8.60E-02
 ene: -6.02E-02 -2.90E-03  2.86E-02  7.71E-02  1.21E-01  1.76E-01  2.24E-01  2.93E-01
 ene:  3.08E-01  4.41E-01  7.02E-01  2.67E+00
 res:  2.52E+00  1.41E-01  8.77E-02  4.94E-02  1.28E-01  3.32E-02  5.87E-02  1.05E-01
 res:  1.84E-01  1.95E-01  1.11E-01  2.43E-01  1.35E-01  9.75E-02  3.49E-02  4.85E-02
 res:  5.43E-02  7.75E-02  6.82E-02  9.24E-02  5.97E-02  1.04E-01  1.21E-01  1.24E-01
 res:  9.77E-02  1.26E-01  1.32E-01  8.50E-01
 ene: -2.23E+00 -2.04E+00 -1.36E+00 -1.35E+00 -1.28E+00 -1.27E+00 -1.26E+00 -1.25E+00
 ene: -5.53E-01 -5.47E-01 -5.37E-01 -4.95E-01 -2.95E-01 -2.82E-01 -2.60E-01 -2.52E-01
 ene: -2.29E-01 -2.16E-01 -1.83E-01 -1.72E-01 -1.58E-01 -1.33E-01 -1.18E-01 -9.71E-02
 ene: -7.61E-02 -2.57E-02  8.48E-02  4.19E-01
 vtowfk : number of one-way 3D ffts skipped in vtowfk until now =16
     eigenvalues (hartree) for   28  bands
              after    3 non-SCF iterations with    4 CG line minimizations
 -2.2266E+00 -2.0430E+00 -1.3558E+00 -1.3532E+00 -1.2762E+00 -1.2675E+00
 -1.2633E+00 -1.2460E+00 -5.5321E-01 -5.4666E-01 -5.3651E-01 -4.9550E-01
 -2.9475E-01 -2.8232E-01 -2.6020E-01 -2.5222E-01 -2.2921E-01 -2.1643E-01
 -1.8285E-01 -1.7169E-01 -1.5822E-01 -1.3257E-01 -1.1784E-01 -9.7127E-02
 -7.6051E-02 -2.5658E-02  8.4821E-02  4.1881E-01
 non-scf iterations; kpt #     9  , k= (  0.50000  0.00000  0.50000  ), band residuals:
 res:  1.17E+00  2.07E+00  2.55E+00  3.84E+00  2.94E+00  2.19E+00  2.51E+00  2.57E+00
 res:  3.16E+00  1.31E+00  1.14E+00  5.70E-01  4.34E-01  7.44E-01  5.04E-01  6.78E-01
 res:  8.23E-01  2.64E-01  9.76E-01  4.91E-01  6.67E-01  6.57E-01  6.18E-01  5.64E-01
 res:  8.77E-01  3.75E-01  3.00E-01  5.57E-01
 ene: -2.94E+00 -2.04E+00 -1.11E+00 -1.06E+00 -1.02E+00 -9.80E-01 -9.33E-01 -9.16E-01
 ene: -4.99E-01 -4.33E-01 -3.97E-01 -3.60E-01 -2.05E-01 -1.80E-01 -1.61E-01 -1.38E-01
 ene: -1.15E-01 -8.17E-02 -5.02E-02 -2.56E-02  1.50E-04  3.56E-02  6.33E-02  1.56E-01
 ene:  2.10E-01  3.08E-01  5.43E-01  1.30E+00
 res:  1.55E+00  2.46E-01  1.17E-01  1.24E-01  1.14E-01  1.28E-01  6.85E-02  1.19E-01
 res:  2.70E-01  6.79E-02  9.04E-02  8.16E-02  6.12E-02  1.02E-01  7.94E-02  1.09E-01
 res:  5.31E-02  5.19E-02  5.54E-02  4.26E-02  6.71E-02  1.20E-01  1.03E-01  1.80E-01
 res:  1.37E-01  1.07E-01  1.05E-01  3.22E-01
 ene: -2.22E+00 -2.06E+00 -1.35E+00 -1.35E+00 -1.27E+00 -1.27E+00 -1.26E+00 -1.23E+00
 ene: -5.48E-01 -5.41E-01 -5.38E-01 -5.32E-01 -3.01E-01 -2.85E-01 -2.65E-01 -2.62E-01
 ene: -2.29E-01 -2.25E-01 -1.90E-01 -1.71E-01 -1.55E-01 -1.47E-01 -1.25E-01 -1.17E-01
 ene: -7.67E-02 -1.57E-02  9.48E-02  2.09E-01
 vtowfk : number of one-way 3D ffts skipped in vtowfk until now =18
     eigenvalues (hartree) for   28  bands
              after    3 non-SCF iterations with    4 CG line minimizations
 -2.2209E+00 -2.0633E+00 -1.3540E+00 -1.3484E+00 -1.2717E+00 -1.2658E+00
 -1.2576E+00 -1.2280E+00 -5.4769E-01 -5.4109E-01 -5.3798E-01 -5.3157E-01
 -3.0081E-01 -2.8530E-01 -2.6467E-01 -2.6206E-01 -2.2947E-01 -2.2457E-01
 -1.8971E-01 -1.7128E-01 -1.5468E-01 -1.4714E-01 -1.2536E-01 -1.1665E-01
 -7.6681E-02 -1.5703E-02  9.4754E-02  2.0935E-01
 non-scf iterations; kpt #    10  , k= ( -0.43750  0.00000  0.50000  ), band residuals:
 res:  1.20E+00  2.35E+00  2.98E+00  3.34E+00  3.40E+00  2.80E+00  2.88E+00  1.33E+00
 res:  3.55E+00  1.11E+00  1.10E+00  8.38E-01  7.11E-01  4.52E-01  5.85E-01  4.74E-01
 res:  7.73E-01  8.21E-01  4.96E-01  1.02E+00  1.33E+00  8.58E-01  1.64E+00  5.75E-01
 res:  3.41E-01  2.78E-01  3.26E-01  4.29E-01
 ene: -2.93E+00 -1.94E+00 -1.20E+00 -1.07E+00 -1.05E+00 -1.02E+00 -9.83E-01 -8.94E-01
 ene: -5.72E-01 -4.87E-01 -4.42E-01 -3.41E-01 -2.23E-01 -1.96E-01 -1.72E-01 -1.45E-01
 ene: -1.05E-01 -9.44E-02 -5.71E-02 -3.35E-03  1.71E-02  7.01E-02  1.01E-01  1.73E-01
 ene:  2.51E-01  3.71E-01  5.35E-01  1.56E+00
 res:  1.68E+00  1.25E-01  2.45E-01  9.60E-02  8.46E-02  9.87E-02  5.83E-02  1.02E-01
 res:  2.12E-01  1.23E-01  1.05E-01  1.46E-01  3.17E-02  7.73E-02  6.91E-02  9.75E-02
 res:  3.97E-02  3.98E-02  6.12E-02  5.46E-02  4.52E-02  9.57E-02  1.13E-01  9.76E-02
 res:  1.01E-01  8.78E-02  8.58E-02  3.05E-01
 ene: -2.23E+00 -2.05E+00 -1.35E+00 -1.35E+00 -1.27E+00 -1.27E+00 -1.26E+00 -1.23E+00
 ene: -5.49E-01 -5.45E-01 -5.42E-01 -5.26E-01 -2.93E-01 -2.88E-01 -2.64E-01 -2.59E-01
 ene: -2.32E-01 -2.25E-01 -1.92E-01 -1.79E-01 -1.54E-01 -1.49E-01 -1.31E-01 -1.14E-01
 ene: -7.61E-02 -5.09E-02  9.27E-02  2.46E-01
 vtowfk : number of one-way 3D ffts skipped in vtowfk until now =20
     eigenvalues (hartree) for   28  bands
              after    3 non-SCF iterations with    4 CG line minimizations
 -2.2331E+00 -2.0524E+00 -1.3536E+00 -1.3453E+00 -1.2726E+00 -1.2707E+00
 -1.2557E+00 -1.2325E+00 -5.4892E-01 -5.4488E-01 -5.4177E-01 -5.2591E-01
 -2.9285E-01 -2.8839E-01 -2.6379E-01 -2.5934E-01 -2.3239E-01 -2.2506E-01
 -1.9223E-01 -1.7907E-01 -1.5446E-01 -1.4922E-01 -1.3060E-01 -1.1379E-01
 -7.6055E-02 -5.0932E-02  9.2705E-02  2.4612E-01
 non-scf iterations; kpt #    11  , k= ( -0.37500  0.00000  0.50000  ), band residuals:
 res:  1.15E+00  2.63E+00  2.20E+00  2.34E+00  2.27E+00  2.95E+00  4.20E+00  4.01E+00
 res:  3.75E+00  2.95E+00  2.57E+00  1.51E+00  6.54E-01  9.50E-01  1.83E+00  1.48E+00
 res:  1.84E+00  2.20E+00  3.85E+00  1.21E+00  2.24E+00  1.78E+00  8.08E-01  8.95E-01
 res:  1.35E+00  8.52E-01  1.54E+00  5.45E-01
 ene: -4.14E+00 -1.91E+00 -1.02E+00 -9.94E-01 -9.38E-01 -8.85E-01 -8.70E-01 -8.17E-01
 ene: -1.88E-01 -1.59E-01 -1.01E-01 -4.18E-02  1.23E-02  4.03E-02  8.27E-02  1.02E-01
 ene:  1.25E-01  1.61E-01  2.04E-01  2.19E-01  2.41E-01  2.69E-01  3.03E-01  3.43E-01
 ene:  3.72E-01  4.47E-01  5.86E-01  4.06E+00
 res:  3.70E+00  9.18E-02  1.07E-01  1.04E-01  1.37E-01  7.71E-02  1.26E-01  1.22E-01
 res:  1.04E-01  2.24E-01  1.60E-01  1.70E-01  1.02E-01  5.87E-02  1.31E-01  6.87E-02
 res:  1.35E-01  8.39E-02  1.13E-01  7.71E-02  1.16E-01  1.49E-01  9.54E-02  1.14E-01
 res:  1.09E-01  1.15E-01  1.39E-01  1.65E+00
 ene: -2.23E+00 -1.94E+00 -1.35E+00 -1.33E+00 -1.27E+00 -1.26E+00 -1.25E+00 -1.24E+00
 ene: -5.54E-01 -5.35E-01 -5.25E-01 -5.08E-01 -2.76E-01 -2.65E-01 -2.40E-01 -2.27E-01
 ene: -2.15E-01 -2.07E-01 -1.72E-01 -1.58E-01 -1.40E-01 -1.17E-01 -1.03E-01 -7.92E-02
 ene: -5.83E-02 -1.33E-03  1.06E-01  6.78E-01
 vtowfk : number of one-way 3D ffts skipped in vtowfk until now =22
     eigenvalues (hartree) for   28  bands
              after    3 non-SCF iterations with    4 CG line minimizations
 -2.2340E+00 -1.9365E+00 -1.3498E+00 -1.3307E+00 -1.2657E+00 -1.2634E+00
 -1.2496E+00 -1.2365E+00 -5.5380E-01 -5.3513E-01 -5.2475E-01 -5.0790E-01
 -2.7636E-01 -2.6454E-01 -2.4040E-01 -2.2732E-01 -2.1463E-01 -2.0675E-01
 -1.7219E-01 -1.5842E-01 -1.3961E-01 -1.1657E-01 -1.0310E-01 -7.9174E-02
 -5.8274E-02 -1.3346E-03  1.0636E-01  6.7833E-01
 non-scf iterations; kpt #    12  , k= ( -0.31250  0.00000  0.50000  ), band residuals:
 res:  1.21E+00  4.55E+00  2.16E+00  2.91E+00  2.04E+00  2.58E+00  2.44E+00  3.07E+00
 res:  3.80E+00  2.60E+00  1.11E+00  9.64E-01  6.85E-01  8.44E-01  4.22E-01  8.44E-01
 res:  5.09E-01  2.85E-01  5.29E-01  7.08E-01  6.10E-01  4.85E-01  4.12E-01  2.99E-01
 res:  7.07E-01  3.23E-01  7.42E-01  7.62E-01
 ene: -2.92E+00 -1.90E+00 -1.07E+00 -1.02E+00 -1.01E+00 -9.43E-01 -9.28E-01 -8.49E-01
 ene: -4.73E-01 -4.64E-01 -3.95E-01 -3.37E-01 -1.91E-01 -1.87E-01 -1.58E-01 -1.28E-01
 ene: -1.05E-01 -8.74E-02 -6.14E-02 -3.19E-02  5.05E-03  5.14E-02  1.24E-01  1.60E-01
 ene:  2.80E-01  3.62E-01  4.49E-01  1.21E+00
 res:  1.68E+00  1.35E-01  1.45E-01  6.72E-02  1.17E-01  6.22E-02  7.19E-02  1.54E-01
 res:  1.67E-01  3.11E-01  8.62E-02  1.89E-01  1.34E-01  3.75E-02  4.81E-02  5.98E-02
 res:  3.05E-02  4.65E-02  9.96E-02  9.65E-02  1.47E-01  1.22E-01  1.76E-01  7.85E-02
 res:  1.20E-01  1.03E-01  1.35E-01  4.56E-01
 ene: -2.23E+00 -2.09E+00 -1.35E+00 -1.34E+00 -1.27E+00 -1.26E+00 -1.26E+00 -1.24E+00
 ene: -5.72E-01 -5.65E-01 -5.47E-01 -5.31E-01 -2.75E-01 -2.67E-01 -2.36E-01 -2.30E-01
 ene: -2.25E-01 -2.13E-01 -1.78E-01 -1.66E-01 -1.50E-01 -1.47E-01 -1.22E-01 -1.16E-01
 ene: -7.13E-02 -5.62E-02  6.76E-02  2.30E-01
 vtowfk : number of one-way 3D ffts skipped in vtowfk until now =24
     eigenvalues (hartree) for   28  bands
              after    3 non-SCF iterations with    4 CG line minimizations
 -2.2334E+00 -2.0929E+00 -1.3506E+00 -1.3419E+00 -1.2681E+00 -1.2647E+00
 -1.2561E+00 -1.2416E+00 -5.7165E-01 -5.6501E-01 -5.4701E-01 -5.3141E-01
 -2.7454E-01 -2.6710E-01 -2.3573E-01 -2.3007E-01 -2.2453E-01 -2.1323E-01
 -1.7764E-01 -1.6598E-01 -1.4961E-01 -1.4708E-01 -1.2186E-01 -1.1638E-01
 -7.1272E-02 -5.6229E-02  6.7583E-02  2.3021E-01
 non-scf iterations; kpt #    13  , k= ( -0.25000  0.00000  0.50000  ), band residuals:
 res:  1.39E+00  3.49E+00  3.14E+00  2.39E+00  3.56E+00  3.02E+00  3.16E+00  3.31E+00
 res:  3.23E+00  3.65E+00  2.43E+00  9.61E-01  1.18E+00  8.25E-01  1.39E+00  1.24E+00
 res:  1.11E+00  9.54E-01  1.76E+00  1.49E+00  7.27E-01  1.21E+00  5.09E-01  7.65E-01
 res:  5.82E-01  5.88E-01  7.83E-01  1.48E+00
 ene: -3.19E+00 -1.95E+00 -1.04E+00 -1.02E+00 -9.81E-01 -9.45E-01 -9.07E-01 -8.65E-01
 ene: -4.16E-01 -3.67E-01 -2.99E-01 -2.57E-01 -1.21E-01 -7.57E-02 -3.05E-02 -1.18E-02
 ene:  2.81E-02  5.82E-02  1.05E-01  1.25E-01  1.49E-01  2.13E-01  2.46E-01  3.35E-01
 ene:  3.65E-01  4.52E-01  5.96E-01  2.84E+00
 res:  3.04E+00  6.91E-02  1.71E-01  8.00E-02  7.41E-02  4.02E-02  6.79E-02  3.52E-02
 res:  2.76E-01  2.93E-01  2.08E-01  9.78E-02  5.60E-02  1.58E-01  1.64E-01  4.47E-02
 res:  5.63E-02  9.81E-02  7.58E-02  8.85E-02  1.42E-01  1.29E-01  7.95E-02  9.16E-02
 res:  8.72E-02  1.28E-01  1.05E-01  1.11E+00
 ene: -2.24E+00 -2.06E+00 -1.35E+00 -1.35E+00 -1.27E+00 -1.27E+00 -1.26E+00 -1.25E+00
 ene: -5.83E-01 -5.61E-01 -5.45E-01 -5.29E-01 -2.62E-01 -2.48E-01 -2.20E-01 -2.13E-01
 ene: -2.06E-01 -1.97E-01 -1.56E-01 -1.46E-01 -1.33E-01 -1.31E-01 -1.13E-01 -1.02E-01
 ene: -3.40E-02 -1.34E-03  5.31E-02  5.19E-01
 vtowfk : number of one-way 3D ffts skipped in vtowfk until now =26
     eigenvalues (hartree) for   28  bands
              after    3 non-SCF iterations with    4 CG line minimizations
 -2.2362E+00 -2.0572E+00 -1.3544E+00 -1.3470E+00 -1.2722E+00 -1.2704E+00
 -1.2602E+00 -1.2467E+00 -5.8337E-01 -5.6116E-01 -5.4481E-01 -5.2897E-01
 -2.6186E-01 -2.4761E-01 -2.1952E-01 -2.1295E-01 -2.0607E-01 -1.9746E-01
 -1.5556E-01 -1.4633E-01 -1.3325E-01 -1.3142E-01 -1.1316E-01 -1.0195E-01
 -3.4032E-02 -1.3393E-03  5.3098E-02  5.1942E-01
 non-scf iterations; kpt #    14  , k= ( -0.18750  0.00000  0.50000  ), band residuals:
 res:  1.12E+00  3.95E+00  2.81E+00  3.07E+00  3.77E+00  4.70E+00  2.73E+00  1.06E+00
 res:  2.17E+00  1.66E+00  2.34E+00  7.89E-01  8.98E-01  7.70E-01  1.12E+00  1.21E+00
 res:  6.13E-01  1.03E+00  5.58E-01  4.07E-01  4.53E-01  1.14E+00  1.23E+00  4.19E-01
 res:  2.98E-01  1.21E+00  4.78E-01  5.81E-01
 ene: -3.04E+00 -1.87E+00 -1.17E+00 -1.11E+00 -1.06E+00 -9.62E-01 -9.04E-01 -8.41E-01
 ene: -4.76E-01 -4.50E-01 -3.71E-01 -3.13E-01 -1.57E-01 -1.36E-01 -1.13E-01 -9.32E-02
 ene: -5.31E-02 -3.19E-02  7.99E-03  5.09E-02  8.82E-02  1.08E-01  1.54E-01  1.89E-01
 ene:  3.50E-01  3.81E-01  6.98E-01  1.44E+00
 res:  2.06E+00  1.23E-01  8.49E-02  1.71E-01  8.95E-02  5.93E-02  7.89E-02  1.24E-01
 res:  1.75E-01  1.35E-01  8.22E-02  1.78E-01  1.30E-01  1.02E-01  3.18E-02  3.29E-02
 res:  5.88E-02  4.98E-02  3.63E-02  3.95E-01  1.04E-01  1.17E-01  7.37E-02  8.66E-02
 res:  8.31E-02  1.48E-01  1.09E-01  6.17E-01
 ene: -2.24E+00 -2.08E+00 -1.35E+00 -1.34E+00 -1.27E+00 -1.26E+00 -1.25E+00 -1.24E+00
 ene: -5.92E-01 -5.79E-01 -5.60E-01 -5.44E-01 -2.72E-01 -2.61E-01 -2.09E-01 -2.04E-01
 ene: -1.99E-01 -1.89E-01 -1.55E-01 -1.51E-01 -1.44E-01 -1.39E-01 -1.25E-01 -1.07E-01
 ene: -5.90E-02 -2.50E-03  3.44E-02  2.75E-01
 vtowfk : number of one-way 3D ffts skipped in vtowfk until now =28
     eigenvalues (hartree) for   28  bands
              after    3 non-SCF iterations with    4 CG line minimizations
[...]
  -2.17482   -2.17426    0.47716    0.48308    0.53813    0.58754    0.70147    0.74683
 kpt#  46, nband= 32, wtk=  1.00000, kpt=  0.0333  0.0333  0.0000 (reduced coord)
 -62.76164  -62.76164  -38.48287  -38.48281  -36.05623  -36.05618  -35.91393  -35.91379
 -15.78109  -15.78096  -14.65457  -14.65456   -7.36271   -7.36256   -4.47394   -4.46812
  -4.29801   -4.29301   -4.05784   -4.05635   -3.41486   -3.40536   -3.19120   -3.18016
  -2.14863   -2.14853    0.56744    0.60320    0.66148    0.69870    0.74519    0.78422
 kpt#  47, nband= 32, wtk=  1.00000, kpt=  0.0167  0.0167  0.0000 (reduced coord)
 -62.76246  -62.76246  -38.48061  -38.48060  -36.05525  -36.05524  -35.90824  -35.90823
 -15.81679  -15.81678  -14.67109  -14.67109   -7.40579   -7.40577   -4.39724   -4.39549
  -4.32010   -4.31840   -3.91655   -3.91649   -3.36403   -3.36065   -3.26144   -3.25791
  -2.13558   -2.13558    0.64129    0.64830    0.69803    0.72750    0.78592    0.80388
 kpt#  48, nband= 32, wtk=  1.00000, kpt=  0.0000  0.0000  0.0000 (reduced coord)
 -62.76274  -62.76274  -38.47985  -38.47985  -36.05493  -36.05493  -35.90632  -35.90632
 -15.82878  -15.82878  -14.67663  -14.67663   -7.42037   -7.42037   -4.38152   -4.38152
  -4.31629   -4.31629   -3.85609   -3.85609   -3.36557   -3.36557   -3.27851   -3.27851
  -2.13168   -2.13168    0.62409    0.63469    0.70622    0.75115    0.81574    0.82176
 Total charge density [el/Bohr^3]
      Maximum=    1.3181E+00  at reduced coord.    0.0000    0.0000    0.0000
 Next maximum=    1.2963E+00  at reduced coord.    0.9722    0.9722    0.0000
      Minimum=   -5.8077E-02  at reduced coord.    0.6667    0.3333    0.0800
 Next minimum=   -5.8077E-02  at reduced coord.    0.6667    0.3333    0.9200
   Integrated=    2.6000E+01

== END DATASET(S) ==============================================================
================================================================================
  
 -outvars: echo values of variables after computation  --------
            acell      6.0564706910E+00  6.0564706910E+00  3.8453782165E+01 Bohr
              amu      9.59400000E+01  3.20660000E+01
           diemac      1.20000000E+01
             ecut      1.70000000E+01 Hartree
           enunit1          0
           enunit2          1
           etotal1    -8.9892601824E+01
            fcart1     5.9278642861E-29  3.4224540413E-29 -0.0000000000E+00
                      -2.9639321430E-29  6.5539994891E-27 -2.9227341430E-02
                      -2.9639321430E-29 -6.5882240295E-27  2.9227341430E-02
-          fftalg         112
           getden1          0
           getden2         -1
             iscf1         17
             iscf2         -2
           istwfk1       1    0    0    0    0    0    0    0    1    0
                         0    0    0    0    0    0    0    0    0    0
                         0    0    0    0    0    0    0    0    0    0
                         0    0    0    0    0    0    0    0    0    0
                         0    0    0    0    0    0    0    0    0    0
           istwfk2       1    0    0    0    0    0    0    0    0    0
                         0    0    0    0    0    0    0    1    0    0
                         0    0    0    0    0    0    0    0    0    0
                         0    0    0    0    0    0    0    0    0    0
                         0    0    0    0    0    0    0    1
                       outvar_i_n : Printing only first  50 k-points.
              ixc           7
           jdtset        1    2
              kpt1     0.00000000E+00  0.00000000E+00  5.00000000E-01
                       6.25000000E-02  0.00000000E+00  5.00000000E-01
                       1.25000000E-01  0.00000000E+00  5.00000000E-01
                       1.87500000E-01  0.00000000E+00  5.00000000E-01
                       2.50000000E-01  0.00000000E+00  5.00000000E-01
                       3.12500000E-01  0.00000000E+00  5.00000000E-01
                       3.75000000E-01  0.00000000E+00  5.00000000E-01
                       4.37500000E-01  0.00000000E+00  5.00000000E-01
                       5.00000000E-01  0.00000000E+00  5.00000000E-01
                      -4.37500000E-01  0.00000000E+00  5.00000000E-01
                      -3.75000000E-01  0.00000000E+00  5.00000000E-01
                      -3.12500000E-01  0.00000000E+00  5.00000000E-01
                      -2.50000000E-01  0.00000000E+00  5.00000000E-01
                      -1.87500000E-01  0.00000000E+00  5.00000000E-01
                      -1.25000000E-01  0.00000000E+00  5.00000000E-01
                      -6.25000000E-02  0.00000000E+00  5.00000000E-01
                       6.25000000E-02  6.25000000E-02  5.00000000E-01
                       1.25000000E-01  6.25000000E-02  5.00000000E-01
                       1.87500000E-01  6.25000000E-02  5.00000000E-01
                       2.50000000E-01  6.25000000E-02  5.00000000E-01
                       3.12500000E-01  6.25000000E-02  5.00000000E-01
                       3.75000000E-01  6.25000000E-02  5.00000000E-01
                       4.37500000E-01  6.25000000E-02  5.00000000E-01
                       5.00000000E-01  6.25000000E-02  5.00000000E-01
                      -4.37500000E-01  6.25000000E-02  5.00000000E-01
                      -3.75000000E-01  6.25000000E-02  5.00000000E-01
                      -3.12500000E-01  6.25000000E-02  5.00000000E-01
                      -2.50000000E-01  6.25000000E-02  5.00000000E-01
                      -1.87500000E-01  6.25000000E-02  5.00000000E-01
                       1.25000000E-01  1.25000000E-01  5.00000000E-01
                       1.87500000E-01  1.25000000E-01  5.00000000E-01
                       2.50000000E-01  1.25000000E-01  5.00000000E-01
                       3.12500000E-01  1.25000000E-01  5.00000000E-01
                       3.75000000E-01  1.25000000E-01  5.00000000E-01
                       4.37500000E-01  1.25000000E-01  5.00000000E-01
                       5.00000000E-01  1.25000000E-01  5.00000000E-01
                      -4.37500000E-01  1.25000000E-01  5.00000000E-01
                      -3.75000000E-01  1.25000000E-01  5.00000000E-01
                      -3.12500000E-01  1.25000000E-01  5.00000000E-01
                       1.87500000E-01  1.87500000E-01  5.00000000E-01
                       2.50000000E-01  1.87500000E-01  5.00000000E-01
                       3.12500000E-01  1.87500000E-01  5.00000000E-01
                       3.75000000E-01  1.87500000E-01  5.00000000E-01
                       4.37500000E-01  1.87500000E-01  5.00000000E-01
                       5.00000000E-01  1.87500000E-01  5.00000000E-01
                      -4.37500000E-01  1.87500000E-01  5.00000000E-01
                       2.50000000E-01  2.50000000E-01  5.00000000E-01
                       3.12500000E-01  2.50000000E-01  5.00000000E-01
                       3.75000000E-01  2.50000000E-01  5.00000000E-01
                       4.37500000E-01  2.50000000E-01  5.00000000E-01
              kpt2     0.00000000E+00  0.00000000E+00  0.00000000E+00
                       2.94117647E-02  0.00000000E+00  0.00000000E+00
                       5.88235294E-02  0.00000000E+00  0.00000000E+00
                       8.82352941E-02  0.00000000E+00  0.00000000E+00
                       1.17647059E-01  0.00000000E+00  0.00000000E+00
                       1.47058824E-01  0.00000000E+00  0.00000000E+00
                       1.76470588E-01  0.00000000E+00  0.00000000E+00
                       2.05882353E-01  0.00000000E+00  0.00000000E+00
                       2.35294118E-01  0.00000000E+00  0.00000000E+00
                       2.64705882E-01  0.00000000E+00  0.00000000E+00
                       2.94117647E-01  0.00000000E+00  0.00000000E+00
                       3.23529412E-01  0.00000000E+00  0.00000000E+00
                       3.52941176E-01  0.00000000E+00  0.00000000E+00
                       3.82352941E-01  0.00000000E+00  0.00000000E+00
                       4.11764706E-01  0.00000000E+00  0.00000000E+00
                       4.41176471E-01  0.00000000E+00  0.00000000E+00
                       4.70588235E-01  0.00000000E+00  0.00000000E+00
                       5.00000000E-01  0.00000000E+00  0.00000000E+00
                       4.83333333E-01  3.33333333E-02  0.00000000E+00
                       4.66666667E-01  6.66666667E-02  0.00000000E+00
                       4.50000000E-01  1.00000000E-01  0.00000000E+00
                       4.33333333E-01  1.33333333E-01  0.00000000E+00
                       4.16666667E-01  1.66666667E-01  0.00000000E+00
                       4.00000000E-01  2.00000000E-01  0.00000000E+00
                       3.83333333E-01  2.33333333E-01  0.00000000E+00
                       3.66666667E-01  2.66666667E-01  0.00000000E+00
                       3.50000000E-01  3.00000000E-01  0.00000000E+00
                       3.33333333E-01  3.33333333E-01  0.00000000E+00
                       3.16666667E-01  3.16666667E-01  0.00000000E+00
                       3.00000000E-01  3.00000000E-01  0.00000000E+00
                       2.83333333E-01  2.83333333E-01  0.00000000E+00
                       2.66666667E-01  2.66666667E-01  0.00000000E+00
                       2.50000000E-01  2.50000000E-01  0.00000000E+00
                       2.33333333E-01  2.33333333E-01  0.00000000E+00
                       2.16666667E-01  2.16666667E-01  0.00000000E+00
                       2.00000000E-01  2.00000000E-01  0.00000000E+00
                       1.83333333E-01  1.83333333E-01  0.00000000E+00
                       1.66666667E-01  1.66666667E-01  0.00000000E+00
                       1.50000000E-01  1.50000000E-01  0.00000000E+00
                       1.33333333E-01  1.33333333E-01  0.00000000E+00
                       1.16666667E-01  1.16666667E-01  0.00000000E+00
                       1.00000000E-01  1.00000000E-01  0.00000000E+00
                       8.33333333E-02  8.33333333E-02  0.00000000E+00
                       6.66666667E-02  6.66666667E-02  0.00000000E+00
                       5.00000000E-02  5.00000000E-02  0.00000000E+00
                       3.33333333E-02  3.33333333E-02  0.00000000E+00
                       1.66666667E-02  1.66666667E-02  0.00000000E+00
                       0.00000000E+00  0.00000000E+00  0.00000000E+00
                       outvar_i_n : Printing only first  50 k-points.
           kptopt1          4
           kptopt2         -3
         kptrlatt       16    0    0      0   16    0      0    0    1
          kptrlen1     9.69035311E+01
          kptrlen2     3.00000000E+01
P           mkmem1         51
P           mkmem2         48
            natom           3
            nband1         28
            nband2         32
           nbdbuf1          0
           nbdbuf2          4
           ndtset           2
            ngfft          24      24     144
          ngfftdg          36      36     225
             nkpt1         51
             nkpt2         48
          nspinor           2
            nstep          10
             nsym           6
           ntypat           2
              occ      1.000000  1.000000  1.000000  1.000000  1.000000  1.000000
                       1.000000  1.000000  1.000000  1.000000  1.000000  1.000000
                       1.000000  1.000000  1.000000  1.000000  1.000000  1.000000
                       1.000000  1.000000  1.000000  1.000000  1.000000  1.000000
                       1.000000  1.000000  0.000000  0.000000
        pawcpxocc           2
        pawecutdg      4.00000000E+01 Hartree
          pawovlp      1.0000000000E+01
        pawspnorb           1
            rprim      1.0000000000E+00  0.0000000000E+00  0.0000000000E+00
                      -5.0000000000E-01  8.6602540378E-01  0.0000000000E+00
                       0.0000000000E+00  0.0000000000E+00  1.0000000000E+00
           shiftk1     0.00000000E+00  0.00000000E+00  5.00000000E-01
           shiftk2     5.00000000E-01  5.00000000E-01  5.00000000E-01
          spgroup         149
           strten1     3.3919604111E-04  3.3919604112E-04  3.5768892526E-04
                       0.0000000000E+00  0.0000000000E+00  0.0000000000E+00
           symrel      1  0  0   0  1  0   0  0  1       0 -1  0  -1  0  0   0  0 -1
                       0  1  0  -1 -1  0   0  0  1       1  1  0   0 -1  0   0  0 -1
                      -1 -1  0   1  0  0   0  0  1      -1  0  0   1  1  0   0  0 -1
           toldfe1     1.00000000E-06 Hartree
           toldfe2     0.00000000E+00 Hartree
           tolwfr1     0.00000000E+00
           tolwfr2     1.00000000E-12
            typat      1  2  2
           useylm           1
              wtk1       0.00391    0.01172    0.01172    0.01172    0.01172    0.01172
                         0.01172    0.01172    0.01172    0.01172    0.01172    0.01172
                         0.01172    0.01172    0.01172    0.01172    0.02344    0.02344
                         0.02344    0.02344    0.02344    0.02344    0.02344    0.02344
                         0.02344    0.02344    0.02344    0.02344    0.02344    0.02344
                         0.02344    0.02344    0.02344    0.02344    0.02344    0.02344
                         0.02344    0.02344    0.02344    0.02344    0.02344    0.02344
                         0.02344    0.02344    0.02344    0.02344    0.02344    0.02344
                         0.02344    0.02344
              wtk2       1.00000    1.00000    1.00000    1.00000    1.00000    1.00000
                         1.00000    1.00000    1.00000    1.00000    1.00000    1.00000
                         1.00000    1.00000    1.00000    1.00000    1.00000    1.00000
                         1.00000    1.00000    1.00000    1.00000    1.00000    1.00000
                         1.00000    1.00000    1.00000    1.00000    1.00000    1.00000
                         1.00000    1.00000    1.00000    1.00000    1.00000    1.00000
                         1.00000    1.00000    1.00000    1.00000    1.00000    1.00000
                         1.00000    1.00000    1.00000    1.00000    1.00000    1.00000
                       outvars : Printing only first  50 k-points.
           xangst      1.6237379922E-27  0.0000000000E+00  1.6459063547E-19
                       1.6024731271E+00  9.2518829129E-01  1.6091498044E+00
                       1.6024731271E+00  9.2518829129E-01 -1.6091498044E+00
            xcart      3.0684201168E-27  0.0000000000E+00  3.1103122508E-19
                       3.0282353455E+00  1.7483524919E+00  3.0408524371E+00
                       3.0282353455E+00  1.7483524919E+00 -3.0408524371E+00
             xred      5.0663501458E-28  0.0000000000E+00  8.0884429974E-21
                       6.6666666667E-01  3.3333333333E-01  7.9078110549E-02
                       6.6666666667E-01  3.3333333333E-01 -7.9078110549E-02
            znucl       42.00000   16.00000

================================================================================
  

================================================================================

 Suggested references for the acknowledgment of ABINIT usage.

 The users of ABINIT have little formal obligations with respect to the ABINIT group
 (those specified in the GNU General Public License, http://www.gnu.org/copyleft/gpl.txt).
 However, it is common practice in the scientific literature,
 to acknowledge the efforts of people that have made the research possible.
 In this spirit, please find below suggested citations of work written by ABINIT developers,
 corresponding to implementations inside of ABINIT that you have used in the present run.
 Note also that it will be of great value to readers of publications presenting these results,
 to read papers enabling them to understand the theoretical formalism and details
 of the ABINIT implementation.
 For information on why they are suggested, see also http://www.abinit.org/about/?text=acknowledgments.
-
- [1] Implementation of the Projector Augmented-Wave Method in the ABINIT code.
- M. Torrent, F. Jollet, F. Bottin, G. Zerah, and X. Gonze Comput. Mat. Science 42, 337, (2008).
- Comment : PAW calculations. Strong suggestion to cite this paper.
-
- [2] Recent developments in the ABINIT software package.
- Computer Phys. Comm. 205, 106 (2016).
- X.Gonze, F.Jollet, F.Abreu Araujo, D.Adams, B.Amadon, T.Applencourt,
- C.Audouze, J.-M.Beuken, J.Bieder, A.Bokhanchuk, E.Bousquet, F.Bruneval
- D.Caliste, M.Cote, F.Dahm, F.Da Pieve, M.Delaveau, M.Di Gennaro,
- B.Dorado, C.Espejo, G.Geneste, L.Genovese, A.Gerossier, M.Giantomassi,
- Y.Gillet, D.R.Hamann, L.He, G.Jomard, J.Laflamme Janssen, S.Le Roux,
- A.Levitt, A.Lherbier, F.Liu, I.Lukacevic, A.Martin, C.Martins,
- M.J.T.Oliveira, S.Ponce, Y.Pouillon, T.Rangel, G.-M.Rignanese,
- A.H.Romero, B.Rousseau, O.Rubel, A.A.Shukri, M.Stankovski, M.Torrent,
- M.J.Van Setten, B.Van Troeye, M.J.Verstraete, D.Waroquier, J.Wiktor,
- B.Xue, A.Zhou, J.W.Zwanziger.
- Comment : the fourth generic paper describing the ABINIT project.
- Note that a version of this paper, that is not formatted for Computer Phys. Comm. 
- is available at http://www.abinit.org/about/ABINIT16.pdf .
- The licence allows the authors to put it on the Web.
-
- [3] ABINIT : First-principles approach of materials and nanosystem properties.
- Computer Phys. Comm. 180, 2582-2615 (2009).
- X. Gonze, B. Amadon, P.-M. Anglade, J.-M. Beuken, F. Bottin, P. Boulanger, F. Bruneval,
- D. Caliste, R. Caracas, M. Cote, T. Deutsch, L. Genovese, Ph. Ghosez, M. Giantomassi
- S. Goedecker, D.R. Hamann, P. Hermet, F. Jollet, G. Jomard, S. Leroux, M. Mancini, S. Mazevet,
- M.J.T. Oliveira, G. Onida, Y. Pouillon, T. Rangel, G.-M. Rignanese, D. Sangalli, R. Shaltaf,
- M. Torrent, M.J. Verstraete, G. Zerah, J.W. Zwanziger
- Comment : the third generic paper describing the ABINIT project.
- Note that a version of this paper, that is not formatted for Computer Phys. Comm. 
- is available at http://www.abinit.org/about/ABINIT_CPC_v10.pdf .
- The licence allows the authors to put it on the Web.
-
- [4] A brief introduction to the ABINIT software package.
- Z. Kristallogr. 220, 558-562 (2005).
- X. Gonze, G.-M. Rignanese, M. Verstraete, J.-M. Beuken, Y. Pouillon, R. Caracas, F. Jollet,
- M. Torrent, G. Zerah, M. Mikami, Ph. Ghosez, M. Veithen, J.-Y. Raty, V. Olevano, F. Bruneval,
- L. Reining, R. Godby, G. Onida, D.R. Hamann, and D.C. Allan.
- Comment : the second generic paper describing the ABINIT project. Note that this paper
- should be cited especially if you are using the GW part of ABINIT, as several authors
- of this part are not in the list of authors of the first or third paper.
- The .pdf of the latter paper is available at http://www.abinit.org/about/zfk_0505-06_558-562.pdf.
- Note that it should not redistributed (Copyright by Oldenburg Wissenshaftverlag,
- the licence allows the authors to put it on the Web).
-
- And optionally:
-
- [5] First-principles computation of material properties : the ABINIT software project. 
- X. Gonze, J.-M. Beuken, R. Caracas, F. Detraux, M. Fuchs, G.-M. Rignanese, L. Sindic,
- M. Verstraete, G. Zerah, F. Jollet, M. Torrent, A. Roy, M. Mikami, Ph. Ghosez, J.-Y. Raty, D.C. Allan.
- Computational Materials Science 25, 478-492 (2002). http://dx.doi.org/10.1016/S0927-0256(02)00325-7
- Comment : the original paper describing the ABINIT project.
  Asked to delete not existent file: mos2_7_STATUS

 Calculation completed.
.Delivered  60 WARNINGs and   2 COMMENTs to log file.

--- !FinalSummary
program: abinit
version: 8.4.1
start_datetime: Thu Aug 10 14:56:12 2017
end_datetime: Thu Aug 10 15:15:23 2017
overall_cpu_time:        1351.0
overall_wall_time:        1150.6
exit_requested_by_user: no 
timelimit: 0
pseudos: 
    Mo  : 46a6064f40e65fbded352cb68d6dce6f
    S   : 41b891fe0e5deb9a6f447dfa5c391202
usepaw: 1
mpi_procs: 1
omp_threads: 1
num_warnings: 60
num_comments: 2
...
