  ABINIT 8.4.1
  
  Give name for formatted input file: 
mos2_5.in
  Give name for formatted output file:
mos2_5.out
  Give root name for generic input files:
mos2_5i
  Give root name for generic output files:
mos2_5o
  Give root name for generic temporary files:
mos2_5

--- !COMMENT
src_file: isfile.F90
src_line: 109
message: |
    Output file mos2_5.out
     already exists.
...


--- !COMMENT
src_file: isfile.F90
src_line: 133
message: |
    Renaming old mos2_5.out to mos2_5.out0013
...


.Version 8.4.1 of ABINIT 
.(sequential version, prepared for a x86_64_linux_gnu7.0 computer) 

.Copyright (C) 1998-2017 ABINIT group . 
 ABINIT comes with ABSOLUTELY NO WARRANTY.
 It is free software, and you are welcome to redistribute it
 under certain conditions (GNU General Public License,
 see ~abinit/COPYING or http://www.gnu.org/copyleft/gpl.txt).

 ABINIT is a project of the Universite Catholique de Louvain,
 Corning Inc. and other collaborators, see ~abinit/doc/developers/contributors.txt .
 Please read ~abinit/doc/users/acknowledgments.html for suggested
 acknowledgments of the ABINIT effort.
 For more information, see http://www.abinit.org .

.Starting date : Wed  9 Aug 2017.
- ( at 12h24 )
  

 ++++++++++++++++++++++++++++++++++++++++++++++++++++++++++++++++++++++++++++++

 === Build Information === 
  Version       : 8.4.1
  Build target  : x86_64_linux_gnu7.0
  Build date    : 20170802

 === Compiler Suite === 
  C compiler       : gnu[trunk
  C++ compiler     : gnu[trunk
  Fortran compiler : gnu7.0
  CFLAGS           :  -g -O2 -mtune=native -march=native
  CXXFLAGS         :  -g -O2 -mtune=native -march=native
  FCFLAGS          :  -g -ffree-line-length-none
  FC_LDFLAGS       : 

 === Optimizations === 
  Debug level        : basic
  Optimization level : standard
  Architecture       : intel_xeon

 === Multicore === 
  Parallel build : no
  Parallel I/O   : no
  openMP support : no
  GPU support    : no

 === Connectors / Fallbacks === 
  Connectors on : yes
  Fallbacks on  : yes
  DFT flavor    : none
  FFT flavor    : none
  LINALG flavor : netlib
  MATH flavor   : none
  TIMER flavor  : abinit
  TRIO flavor   : none

 === Experimental features === 
  Bindings            : @enable_bindings@
  Exports             : no
  GW double-precision : no

 ++++++++++++++++++++++++++++++++++++++++++++++++++++++++++++++++++++++++++++++


 ++++++++++++++++++++++++++++++++++++++++++++++++++++++++++++++++++++++++++++++
 Default optimizations:
   -O2 -mtune=native -march=native


 Optimizations for 20_datashare:
   -O0


 ++++++++++++++++++++++++++++++++++++++++++++++++++++++++++++++++++++++++++++++


 ++++++++++++++++++++++++++++++++++++++++++++++++++++++++++++++++++++++++++++++
 CPP options activated during the build:

                    CC_GNU                   CXX_GNU                    FC_GNU
 
 HAVE_FC_ALLOCATABLE_DT...             HAVE_FC_ASYNC         HAVE_FC_BACKTRACE
 
  HAVE_FC_COMMAND_ARGUMENT      HAVE_FC_COMMAND_LINE        HAVE_FC_CONTIGUOUS
 
           HAVE_FC_CPUTIME              HAVE_FC_EXIT             HAVE_FC_FLUSH
 
             HAVE_FC_GAMMA            HAVE_FC_GETENV   HAVE_FC_IEEE_EXCEPTIONS
 
          HAVE_FC_INT_QUAD             HAVE_FC_IOMSG     HAVE_FC_ISO_C_BINDING
 
  HAVE_FC_ISO_FORTRAN_2008        HAVE_FC_LONG_LINES        HAVE_FC_MOVE_ALLOC
 
           HAVE_FC_PRIVATE         HAVE_FC_PROTECTED         HAVE_FC_STREAM_IO
 
            HAVE_FC_SYSTEM          HAVE_FORTRAN2003        HAVE_LIBPAW_ABINIT
 
      HAVE_LIBTETRA_ABINIT               HAVE_LINALG        HAVE_LINALG_SERIAL
 
             HAVE_OS_LINUX         HAVE_TIMER_ABINIT              USE_MACROAVE
 
 ++++++++++++++++++++++++++++++++++++++++++++++++++++++++++++++++++++++++++++++

- input  file    -> mos2_5.in
- output file    -> mos2_5.out
- root for input  files -> mos2_5i
- root for output files -> mos2_5o

-instrng: 84 lines of input have been read from file mos2_5.in


 Please give name of formatted atomic psp file
 iofn2 : for atom type 1, psp file is ./42mo.hghsc

 Please give name of formatted atomic psp file
 iofn2 : for atom type 2, psp file is ./S.psp8
  read the values zionpsp= 14.0 , pspcod=   3 , lmax=   2
  read the values zionpsp=  6.0 , pspcod=   8 , lmax=   2

 inpspheads: deduce mpsang = 3, n1xccc = 2501.
 invars1 : treat image number: 1

 symlatt : the Bravais lattice is hP (primitive hexagonal)
  xred   is defined in input file
 ingeo : takes atomic coordinates from input array xred
  symfind : exit, nsym=          12
    symrel matrices, symafm and tnons are :
   1       1   0   0     0   1   0     0   0   1       1      0.0000  0.0000  0.0000
   2       0  -1   0    -1   0   0     0   0  -1       1      0.0000  0.0000  0.0000
   3      -1  -1   0     1   0   0     0   0  -1       1      0.0000  0.0000  0.0000
   4      -1   0   0     1   1   0     0   0   1       1      0.0000  0.0000  0.0000
   5       0   1   0    -1  -1   0     0   0   1       1      0.0000  0.0000  0.0000
   6       1   1   0     0  -1   0     0   0  -1       1      0.0000  0.0000  0.0000
   7       1   0   0     0   1   0     0   0  -1       1      0.0000  0.0000  0.0000
   8       0  -1   0    -1   0   0     0   0   1       1      0.0000  0.0000  0.0000
   9      -1  -1   0     1   0   0     0   0   1       1      0.0000  0.0000  0.0000
  10      -1   0   0     1   1   0     0   0  -1       1      0.0000  0.0000  0.0000
  11       0   1   0    -1  -1   0     0   0  -1       1      0.0000  0.0000  0.0000
  12       1   1   0     0  -1   0     0   0   1       1      0.0000  0.0000  0.0000

 symlatt : the Bravais lattice is hP (primitive hexagonal)

 symlatt : the Bravais lattice is hP (primitive hexagonal)
 symspgr : spgroup= 187  P-6 m 2   (=D3h^1)
 symspgr : optical characteristics = uniaxial
 Optical axis (in reduced coordinates, real space ) :   0   0   1
 ingeo : angdeg(1:3)=   90.00000000   90.00000000  120.00000000
 invars1 : treat image number: 1

 symlatt : the Bravais lattice is hP (primitive hexagonal)
  xred   is defined in input file
 ingeo : takes atomic coordinates from input array xred
  symfind : exit, nsym=          12
    symrel matrices, symafm and tnons are :
   1       1   0   0     0   1   0     0   0   1       1      0.0000  0.0000  0.0000
   2       0  -1   0    -1   0   0     0   0  -1       1      0.0000  0.0000  0.0000
   3      -1  -1   0     1   0   0     0   0  -1       1      0.0000  0.0000  0.0000
   4      -1   0   0     1   1   0     0   0   1       1      0.0000  0.0000  0.0000
   5       0   1   0    -1  -1   0     0   0   1       1      0.0000  0.0000  0.0000
   6       1   1   0     0  -1   0     0   0  -1       1      0.0000  0.0000  0.0000
   7       1   0   0     0   1   0     0   0  -1       1      0.0000  0.0000  0.0000
   8       0  -1   0    -1   0   0     0   0   1       1      0.0000  0.0000  0.0000
   9      -1  -1   0     1   0   0     0   0   1       1      0.0000  0.0000  0.0000
  10      -1   0   0     1   1   0     0   0  -1       1      0.0000  0.0000  0.0000
  11       0   1   0    -1  -1   0     0   0  -1       1      0.0000  0.0000  0.0000
  12       1   1   0     0  -1   0     0   0   1       1      0.0000  0.0000  0.0000

 symlatt : the Bravais lattice is hP (primitive hexagonal)

 symlatt : the Bravais lattice is hP (primitive hexagonal)
 symspgr : spgroup= 187  P-6 m 2   (=D3h^1)
 symspgr : optical characteristics = uniaxial
 Optical axis (in reduced coordinates, real space ) :   0   0   1
 ingeo : angdeg(1:3)=   90.00000000   90.00000000  120.00000000
 invars2: take the default value of fband=  1.25000000E-01
 chkneu : initialized the occupation numbers for occopt=    1, spin-unpolarized or antiferromagnetic case :
  2.00  2.00  2.00  2.00  2.00  2.00  2.00  2.00  2.00  2.00  2.00  2.00
  2.00  0.00
 chkneu : initialized the occupation numbers for occopt=    1, spin-unpolarized or antiferromagnetic case :
  2.00  2.00  2.00  2.00  2.00  2.00  2.00  2.00  2.00  2.00  2.00  2.00
  2.00  0.00  0.00  0.00
mpi_setup: mkmem  undefined in the input file.Use default mkmem  = nkpt
 mpi_setup: With nkpt_me=10 and mkmem  = 10, ground state wf handled in core.
mpi_setup: mkqmem undefined in the input file.Use default mkqmem = nkpt
 mpi_setup: With nkpt_me=10 and mkqmem = 10, ground state wf handled in core.
mpi_setup: mk1mem undefined in the input file.Use default mk1mem = nkpt
 mpi_setup: With nkpt_me=10 and mk1mem = 10, ground state wf handled in core.
 For input ecut=  1.700000E+01 best grid ngfft=      24      24     144
       max ecut=  1.730042E+01

 ==== FFT mesh ====
  FFT mesh divisions ........................    24   24  144
  Augmented FFT divisions ...................    25   25  144
  FFT algorithm .............................   112
  FFT cache size ............................    16
 getmpw: optimal value of mpw= 4122
mpi_setup: mkmem  undefined in the input file.Use default mkmem  = nkpt
 mpi_setup: With nkpt_me=48 and mkmem  = 48, ground state wf handled in core.
mpi_setup: mkqmem undefined in the input file.Use default mkqmem = nkpt
 mpi_setup: With nkpt_me=48 and mkqmem = 48, ground state wf handled in core.
mpi_setup: mk1mem undefined in the input file.Use default mk1mem = nkpt
 mpi_setup: With nkpt_me=48 and mk1mem = 48, ground state wf handled in core.
 For input ecut=  1.700000E+01 best grid ngfft=      24      24     144
       max ecut=  1.730042E+01

 ==== FFT mesh ====
  FFT mesh divisions ........................    24   24  144
  Augmented FFT divisions ...................    25   25  144
  FFT algorithm .............................   112
  FFT cache size ............................    16
 getmpw: optimal value of mpw= 4133

 DATASET    1 : space group P-6 m 2 (#187); Bravais hP (primitive hexag.)

 getdim_nloc : deduce lmnmax  =  18, lnmax  =   6,
                      lmnmaxso=  34, lnmaxso=  10.
memory : analysis of memory needs
================================================================================
 Values of the parameters that define the memory need for DATASET  1.
     intxc =       0    ionmov =       0      iscf =       7    lmnmax =       6
     lnmax =       6     mgfft =     144  mpssoang =       3    mqgrid =    7138
     natom =       3  nloc_mem =       1    nspden =       1   nspinor =       1
    nsppol =       1      nsym =      12    n1xccc =    2501    ntypat =       2
    occopt =       1   xclevel =       1
-    mband =          14        mffmem =           1         mkmem =          10
       mpw =        4122          nfft =       82944          nkpt =          10
================================================================================
P This job should need less than                      35.851 Mbytes of memory.
  Rough estimation (10% accuracy) of disk space for files :
_ WF disk file :      8.808 Mbytes ; DEN or POT disk file :      0.635 Mbytes.
================================================================================

 Biggest array : f_fftgr(disk), with     10.1270 MBytes.
 memana : allocated an array of     10.127 Mbytes, for testing purposes.
 memana: allocated      35.851Mbytes, for testing purposes. 
 The job will continue.

 DATASET    2 : space group P-6 m 2 (#187); Bravais hP (primitive hexag.)

 getdim_nloc : deduce lmnmax  =  18, lnmax  =   6,
                      lmnmaxso=  34, lnmaxso=  10.
memory : analysis of memory needs
================================================================================
 Values of the parameters that define the memory need for DATASET  2.
     intxc =       0    ionmov =       0      iscf =      -2    lmnmax =       6
     lnmax =       6     mgfft =     144  mpssoang =       3    mqgrid =    7138
     natom =       3  nloc_mem =       1    nspden =       1   nspinor =       1
    nsppol =       1      nsym =      12    n1xccc =    2501    ntypat =       2
    occopt =       1   xclevel =       1
-    mband =          16        mffmem =           1         mkmem =          48
       mpw =        4133          nfft =       82944          nkpt =          48
================================================================================
P This job should need less than                      67.268 Mbytes of memory.
  Rough estimation (10% accuracy) of disk space for files :
_ WF disk file :     48.436 Mbytes ; DEN or POT disk file :      0.635 Mbytes.
================================================================================

 Biggest array : cg(disk), with     48.4356 MBytes.
 memana : allocated an array of     48.436 Mbytes, for testing purposes.
 memana: allocated      67.268Mbytes, for testing purposes. 
 The job will continue.
--------------------------------------------------------------------------------
------------- Echo of variables that govern the present computation ------------
--------------------------------------------------------------------------------
-
- outvars: echo of selected default values                                      
-   iomode0 =  0 , fftalg0 =112 , wfoptalg0 =  0
-
- outvars: echo of global parameters not present in the input file              
-  max_nthreads =    0
-
 -outvars: echo values of preprocessed input variables --------
            acell      6.0564706910E+00  6.0564706910E+00  3.8453782165E+01 Bohr
              amu      9.59400000E+01  3.20660000E+01
           diemac      1.20000000E+01
             ecut      1.70000000E+01 Hartree
           enunit1          0
           enunit2          1
-          fftalg         112
           getden1          0
           getden2         -1
             iscf1          7
             iscf2         -2
           istwfk1       4    0    0    0    5    0    0    0    0    0
           istwfk2       2    0    0    0    0    0    0    0    0    0
                         0    0    0    0    0    0    0    3    0    0
                         0    0    0    0    0    0    0    0    0    0
                         0    0    0    0    0    0    0    0    0    0
                         0    0    0    0    0    0    0    2
           jdtset        1    2
              kpt1     0.00000000E+00  0.00000000E+00  5.00000000E-01
                       1.25000000E-01  0.00000000E+00  5.00000000E-01
                       2.50000000E-01  0.00000000E+00  5.00000000E-01
                       3.75000000E-01  0.00000000E+00  5.00000000E-01
                       5.00000000E-01  0.00000000E+00  5.00000000E-01
                       1.25000000E-01  1.25000000E-01  5.00000000E-01
                       2.50000000E-01  1.25000000E-01  5.00000000E-01
                       3.75000000E-01  1.25000000E-01  5.00000000E-01
                       2.50000000E-01  2.50000000E-01  5.00000000E-01
                       3.75000000E-01  2.50000000E-01  5.00000000E-01
              kpt2     0.00000000E+00  0.00000000E+00  0.00000000E+00
                       2.94117647E-02  0.00000000E+00  0.00000000E+00
                       5.88235294E-02  0.00000000E+00  0.00000000E+00
                       8.82352941E-02  0.00000000E+00  0.00000000E+00
                       1.17647059E-01  0.00000000E+00  0.00000000E+00
                       1.47058824E-01  0.00000000E+00  0.00000000E+00
                       1.76470588E-01  0.00000000E+00  0.00000000E+00
                       2.05882353E-01  0.00000000E+00  0.00000000E+00
                       2.35294118E-01  0.00000000E+00  0.00000000E+00
                       2.64705882E-01  0.00000000E+00  0.00000000E+00
                       2.94117647E-01  0.00000000E+00  0.00000000E+00
                       3.23529412E-01  0.00000000E+00  0.00000000E+00
                       3.52941176E-01  0.00000000E+00  0.00000000E+00
                       3.82352941E-01  0.00000000E+00  0.00000000E+00
                       4.11764706E-01  0.00000000E+00  0.00000000E+00
                       4.41176471E-01  0.00000000E+00  0.00000000E+00
                       4.70588235E-01  0.00000000E+00  0.00000000E+00
                       5.00000000E-01  0.00000000E+00  0.00000000E+00
                       4.83333333E-01  3.33333333E-02  0.00000000E+00
                       4.66666667E-01  6.66666667E-02  0.00000000E+00
                       4.50000000E-01  1.00000000E-01  0.00000000E+00
                       4.33333333E-01  1.33333333E-01  0.00000000E+00
                       4.16666667E-01  1.66666667E-01  0.00000000E+00
                       4.00000000E-01  2.00000000E-01  0.00000000E+00
                       3.83333333E-01  2.33333333E-01  0.00000000E+00
                       3.66666667E-01  2.66666667E-01  0.00000000E+00
                       3.50000000E-01  3.00000000E-01  0.00000000E+00
                       3.33333333E-01  3.33333333E-01  0.00000000E+00
                       3.16666667E-01  3.16666667E-01  0.00000000E+00
                       3.00000000E-01  3.00000000E-01  0.00000000E+00
                       2.83333333E-01  2.83333333E-01  0.00000000E+00
                       2.66666667E-01  2.66666667E-01  0.00000000E+00
                       2.50000000E-01  2.50000000E-01  0.00000000E+00
                       2.33333333E-01  2.33333333E-01  0.00000000E+00
                       2.16666667E-01  2.16666667E-01  0.00000000E+00
                       2.00000000E-01  2.00000000E-01  0.00000000E+00
                       1.83333333E-01  1.83333333E-01  0.00000000E+00
                       1.66666667E-01  1.66666667E-01  0.00000000E+00
                       1.50000000E-01  1.50000000E-01  0.00000000E+00
                       1.33333333E-01  1.33333333E-01  0.00000000E+00
                       1.16666667E-01  1.16666667E-01  0.00000000E+00
                       1.00000000E-01  1.00000000E-01  0.00000000E+00
                       8.33333333E-02  8.33333333E-02  0.00000000E+00
                       6.66666667E-02  6.66666667E-02  0.00000000E+00
                       5.00000000E-02  5.00000000E-02  0.00000000E+00
                       3.33333333E-02  3.33333333E-02  0.00000000E+00
                       1.66666667E-02  1.66666667E-02  0.00000000E+00
                       0.00000000E+00  0.00000000E+00  0.00000000E+00
           kptopt1          1
           kptopt2         -3
         kptrlatt        8    0    0      0    8    0      0    0    1
          kptrlen1     4.84517655E+01
          kptrlen2     3.00000000E+01
P           mkmem1         10
P           mkmem2         48
            natom           3
            nband1         14
            nband2         16
           nbdbuf1          0
           nbdbuf2          2
           ndtset           2
            ngfft          24      24     144
             nkpt1         10
             nkpt2         48
            nstep          10
             nsym          12
           ntypat           2
              occ      2.000000  2.000000  2.000000  2.000000  2.000000  2.000000
                       2.000000  2.000000  2.000000  2.000000  2.000000  2.000000
                       2.000000  0.000000
            rprim      1.0000000000E+00  0.0000000000E+00  0.0000000000E+00
                      -5.0000000000E-01  8.6602540378E-01  0.0000000000E+00
                       0.0000000000E+00  0.0000000000E+00  1.0000000000E+00
           shiftk1     0.00000000E+00  0.00000000E+00  5.00000000E-01
           shiftk2     5.00000000E-01  5.00000000E-01  5.00000000E-01
          spgroup         187
           symrel      1  0  0   0  1  0   0  0  1       0 -1  0  -1  0  0   0  0 -1
                      -1 -1  0   1  0  0   0  0 -1      -1  0  0   1  1  0   0  0  1
                       0  1  0  -1 -1  0   0  0  1       1  1  0   0 -1  0   0  0 -1
                       1  0  0   0  1  0   0  0 -1       0 -1  0  -1  0  0   0  0  1
                      -1 -1  0   1  0  0   0  0  1      -1  0  0   1  1  0   0  0 -1
                       0  1  0  -1 -1  0   0  0 -1       1  1  0   0 -1  0   0  0  1
           toldfe1     1.00000000E-06 Hartree
           toldfe2     0.00000000E+00 Hartree
           tolwfr1     0.00000000E+00
           tolwfr2     1.00000000E-12
            typat      1  2  2
              wtk1       0.01563    0.09375    0.09375    0.09375    0.04688    0.09375
                         0.18750    0.18750    0.09375    0.09375
              wtk2       1.00000    1.00000    1.00000    1.00000    1.00000    1.00000
                         1.00000    1.00000    1.00000    1.00000    1.00000    1.00000
                         1.00000    1.00000    1.00000    1.00000    1.00000    1.00000
                         1.00000    1.00000    1.00000    1.00000    1.00000    1.00000
                         1.00000    1.00000    1.00000    1.00000    1.00000    1.00000
                         1.00000    1.00000    1.00000    1.00000    1.00000    1.00000
                         1.00000    1.00000    1.00000    1.00000    1.00000    1.00000
                         1.00000    1.00000    1.00000    1.00000    1.00000    1.00000
           xangst      1.2178034942E-27  7.0309917517E-28  1.6459063547E-19
                       1.6024731271E+00  9.2518829128E-01  1.6091498044E+00
                       1.6024731271E+00  9.2518829128E-01 -1.6091498044E+00
            xcart      2.3013150876E-27  1.3286648853E-27  3.1103122508E-19
                       3.0282353455E+00  1.7483524919E+00  3.0408524371E+00
                       3.0282353455E+00  1.7483524919E+00 -3.0408524371E+00
             xred      5.0663501458E-28  2.5331750729E-28  8.0884429974E-21
                       6.6666666667E-01  3.3333333333E-01  7.9078110549E-02
                       6.6666666667E-01  3.3333333333E-01 -7.9078110549E-02
            znucl       42.00000   16.00000

================================================================================

 chkinp: Checking input parameters for consistency, jdtset=   1.

 chkinp: Checking input parameters for consistency, jdtset=   2.
 DATA TYPE INFORMATION: 
 REAL:      Data type name: REAL(DP) 
            Kind value:      8
            Precision:      15
            Smallest nonnegligible quantity relative to 1:  0.22204460E-15
            Smallest positive number:                       0.22250739-307
            Largest representable number:                   0.17976931+309
 INTEGER:   Data type name: INTEGER(default) 
            Kind value: 4
            Bit size:   32
            Largest representable number: 2147483647
 LOGICAL:   Data type name: LOGICAL 
            Kind value: 4
 CHARACTER: Data type name: CHARACTER             Kind value: 1

  ==== OpenMP parallelism is OFF ====
 
  MPI-IO support is OFF

================================================================================
== DATASET  1 ==================================================================
-   nproc =    1


 getdim_nloc : deduce lmnmax  =  18, lnmax  =   6,
                      lmnmaxso=  34, lnmaxso=  10.
 Exchange-correlation functional for the present dataset will be:
  LDA: new Teter (4/93) with spin-polarized option - ixc=1
 Citation for XC functional:
  S. Goedecker, M. Teter, J. Huetter, PRB 54, 1703 (1996)

 Unit cell volume ucvol=  1.2215435E+03 bohr^3
 Angles (23,13,12)=  9.00000000E+01  9.00000000E+01  1.20000000E+02 degrees

 getcut: wavevector=  0.0000  0.0000  0.0000  ngfft=  24  24 144
         ecut(hartree)=     17.000   => boxcut(ratio)=   2.01759
- pspini: atom type   1  psp file is ./42mo.hghsc
- pspatm: opening atomic psp file    ./42mo.hghsc
- Hartwigsen-Goedecker-Hutter psp for Mo,  from PRB58, 3641 (1998)
- 42.00000  14.00000     10605                znucl, zion, pspdat
    3    1    2    0      2001   0.00000      pspcod,pspxc,lmax,lloc,mmax,r2well
 rloc=   0.4300000
 cc1 =  16.2374520; cc2 =   1.4965360; cc3 =   0.0000000; cc4 =   0.0000000
 rrs =   0.3762550; h11s=   3.3624260; h22s=  -5.2892760; h33s=   0.0000000
 rrp =   0.3617340; h11p=  -0.3795710; h22p=  -4.0677130; h33p=   0.0000000
                    k11p=   0.3786810; k22p=  -0.1245610; k33p=   0.0000000
 rrd =   0.5258280; h11d=  -1.5432110; h22d=   1.0743880; h33d=   0.0000000
                    k11d=   0.0144600; k22d=  -0.0147690; k33d=   0.0000000
-  Local part computed in reciprocal space.

 pspatm : COMMENT -
  the projectors are not normalized,
  so that the KB energies are not consistent with 
  definition in PRB44, 8503 (1991). 
  However, this does not influence the results obtained hereafter.
 pspatm: epsatm=   42.21916586
         --- l  ekb(1:nproj) -->
             0   -1.085688    0.721857
             1   -0.208345    0.013056
             2   -0.256316    0.182427
 pspatm: atomic psp has been read  and splines computed

- pspini: atom type   2  psp file is ./S.psp8
- pspatm: opening atomic psp file    ./S.psp8
- S     ONCVPSP  r_core=  1.45  1.45  1.62
- 16.00000   6.00000    151027                znucl, zion, pspdat
    8   11    2    4       600   0.00000      pspcod,pspxc,lmax,lloc,mmax,r2well

--- !WARNING
src_file: pspatm.F90
src_line: 383
message: |
    Pseudopotential file pspxc= 11,
    not equal to input ixc= 1.
    These parameters must agree to get the same xc 
    in ABINIT code as in psp construction.
    Action: check psp design or input file.
    Assume experienced user. Execution will continue.
...

    5.99000000000000    6.00000000000000    0.00000000000000   rchrg,fchrg,qchrg
     nproj     2     2     2
extension_switch     1
 valence charge integrates to:    5.9895206661075315     
 pspatm: epsatm=    9.01629391
         --- l  ekb(1:nproj) -->
             0    6.687458    0.573856
             1    3.355342    0.912754
             2   -8.510942   -1.367258
 pspatm: atomic psp has been read  and splines computed

   1.56654560E+03                                ecore*ucvol(ha*bohr**3)
 ==== Info on pseudopotentials ====
  Norm-conserving pseudopotentials
  Number of pseudopotentials ..    2
  Number of types of atoms   ..    2
  Calculation with spin-orbit coupling 
  Max number of channels (spin-orbit included)   5
  - Atom type    1 has spin-orbit characteristics (pspso=  0)
  - Atom type    2 has spin-orbit characteristics (pspso=  0)
  Nonlocal part applied using Legendre polynomials
  Max number of non-local projectors over l and type   2
  Highest angular momentum +1 .......   3
  Max number of (l,n)   components ..  10
  Max number of (l,m,n) components ..  10

 Pseudo-Core Charge Info: 
   Number of radial points for pseudo-core charge .. 2501
   XC core-correction treatment (optnlxccc) ........    1
   Radius for pseudo-core charge for each type ..... 

  - Atom type    1 has pseudo-core radius ..  0.0000
  - Atom type    2 has pseudo-core radius ..  5.9900

 Info on the Q-grid used for form factors in spline form: 
   Number of q-points for radial functions ffspl ..   7138
   Number of q-points for vlspl ...................   7138
   vloc is computed in Reciprocal Space
   model core charge treated in real-space

  XC functional for type 1 is 1
  Pseudo valence available: no
  XC functional for type 2 is 11
  Pseudo valence available: yes

 wfconv:    14 bands initialized randomly with npw=  2064, for ikpt=     1
 wfconv:    14 bands initialized randomly with npw=  4112, for ikpt=     2
 wfconv:    14 bands initialized randomly with npw=  4104, for ikpt=     3
 wfconv:    14 bands initialized randomly with npw=  4078, for ikpt=     4
 wfconv:    14 bands initialized randomly with npw=  2040, for ikpt=     5
 wfconv:    14 bands initialized randomly with npw=  4122, for ikpt=     6
 wfconv:    14 bands initialized randomly with npw=  4078, for ikpt=     7
 wfconv:    14 bands initialized randomly with npw=  4080, for ikpt=     8
 wfconv:    14 bands initialized randomly with npw=  4072, for ikpt=     9
 wfconv:    14 bands initialized randomly with npw=  4068, for ikpt=    10
_setup2: Arith. and geom. avg. npw (full set) are    4087.500    4087.461
 initro: for itypat=  1, take decay length=      0.7500,
 initro: indeed, coreel=     28.0000, nval= 14 and densty=  0.0000E+00.
 initro: for itypat=  2, take pseudo charge density from pp file

================================================================================

 getcut: wavevector=  0.0000  0.0000  0.0000  ngfft=  24  24 144
         ecut(hartree)=     17.000   => boxcut(ratio)=   2.01759

--- !WARNING
src_file: m_ewald.F90
src_line: 145
message: |
    Very large box of G neighbors in ewald: you probably do not want to do this.
     If you have a metal consider setting dipdip 0.  ng =         30
...


--- !WARNING
src_file: m_ewald.F90
src_line: 145
message: |
    Very large box of G neighbors in ewald: you probably do not want to do this.
     If you have a metal consider setting dipdip 0.  ng =         40
...


--- !WARNING
src_file: m_ewald.F90
src_line: 145
message: |
    Very large box of G neighbors in ewald: you probably do not want to do this.
     If you have a metal consider setting dipdip 0.  ng =         50
...


--- !WARNING
src_file: mkdenpos.F90
src_line: 176
message: |
    Density went too small (lower than xc_denpos) at 15644 points
    and was set to xc_denpos =   1.00E-14. Lowest was  -0.24E-05.
    Likely due to too low boxcut or too low ecut for pseudopotential core charge.
...


 ITER STEP NUMBER     1
 vtorho : nnsclo_now=2, note that nnsclo,dbl_nnsclo,istep=0 0 1
 non-scf iterations; kpt #     1  , k= (  0.00000  0.00000  0.50000  ), band residuals:
 res:  1.86E+00  1.03E+00  6.98E-01  4.64E-01  1.17E+00  2.99E-01  2.66E-01  4.01E-01
 res:  8.13E-01  3.25E-01  1.65E-01  2.16E-01  1.50E-01  1.54E-01
 ene: -2.44E+00 -1.53E+00 -1.47E+00 -1.43E+00 -4.40E-01 -4.03E-01 -2.13E-01 -1.20E-01
 ene: -6.72E-02 -2.15E-02  3.91E-02  1.19E-01  1.95E-01  2.60E-01
 res:  7.84E-03  4.21E-03  5.59E-03  7.52E-03  1.04E-02  7.45E-03  1.07E-02  3.13E-02
 res:  5.85E-02  1.06E-02  5.75E-02  6.59E-02  2.99E-02  7.18E-02
 ene: -2.68E+00 -1.71E+00 -1.71E+00 -1.70E+00 -5.90E-01 -5.56E-01 -3.30E-01 -2.96E-01
 ene: -2.84E-01 -2.42E-01 -1.92E-01 -1.25E-01 -5.99E-02  7.80E-02
 vtowfk : number of one-way 3D ffts skipped in vtowfk until now =1
     eigenvalues (hartree) for   14  bands
              after    3 non-SCF iterations with    4 CG line minimizations
 -2.6757E+00 -1.7113E+00 -1.7055E+00 -1.7035E+00 -5.8974E-01 -5.5647E-01
 -3.2977E-01 -2.9645E-01 -2.8390E-01 -2.4151E-01 -1.9217E-01 -1.2522E-01
 -5.9870E-02  7.7962E-02
 non-scf iterations; kpt #     2  , k= (  0.12500  0.00000  0.50000  ), band residuals:
 res:  2.01E+00  1.01E+00  1.63E+00  1.12E+00  1.07E+00  1.36E+00  8.69E-01  5.24E-01
 res:  1.76E-01  2.15E-01  1.93E-01  1.99E-01  1.84E-01  2.04E-01
 ene: -2.43E+00 -1.48E+00 -1.36E+00 -1.25E+00 -4.39E-01 -3.62E-01 -1.84E-01 -1.44E-01
 ene: -7.65E-02 -5.68E-03  5.39E-02  1.36E-01  2.64E-01  3.64E-01
 res:  1.23E-02  1.04E-02  1.59E-02  3.30E-02  1.22E-02  2.29E-02  2.43E-02  2.64E-02
 res:  6.32E-02  3.03E-02  4.18E-02  6.35E-02  5.36E-02  4.05E-02
 ene: -2.67E+00 -1.71E+00 -1.70E+00 -1.70E+00 -5.81E-01 -5.44E-01 -3.19E-01 -2.98E-01
 ene: -2.80E-01 -2.58E-01 -1.95E-01 -1.34E-01 -6.56E-02  5.89E-02
 vtowfk : number of one-way 3D ffts skipped in vtowfk until now =2
     eigenvalues (hartree) for   14  bands
              after    3 non-SCF iterations with    4 CG line minimizations
 -2.6742E+00 -1.7104E+00 -1.7040E+00 -1.6983E+00 -5.8121E-01 -5.4371E-01
 -3.1877E-01 -2.9786E-01 -2.7956E-01 -2.5795E-01 -1.9482E-01 -1.3379E-01
 -6.5594E-02  5.8946E-02
 non-scf iterations; kpt #     3  , k= (  0.25000  0.00000  0.50000  ), band residuals:
 res:  2.02E+00  1.29E+00  1.49E+00  7.55E-01  1.05E+00  5.34E-01  3.86E-01  4.16E-01
 res:  3.53E-01  3.13E-01  2.80E-01  2.66E-01  1.45E-01  1.63E-01
 ene: -2.42E+00 -1.51E+00 -1.46E+00 -1.40E+00 -4.75E-01 -4.14E-01 -1.98E-01 -1.74E-01
 ene: -1.52E-01 -1.12E-01 -2.64E-02  7.28E-02  3.04E-01  4.47E-01
 res:  1.74E-02  7.87E-03  1.13E-02  1.26E-02  5.72E-03  1.21E-02  2.74E-02  3.13E-02
 res:  1.96E-02  4.29E-02  1.60E-02  2.73E-02  7.01E-02  3.39E-02
 ene: -2.67E+00 -1.71E+00 -1.71E+00 -1.70E+00 -5.66E-01 -5.40E-01 -3.26E-01 -2.99E-01
 ene: -2.94E-01 -2.49E-01 -1.93E-01 -1.31E-01 -1.06E-01  5.98E-02
 vtowfk : number of one-way 3D ffts skipped in vtowfk until now =3
     eigenvalues (hartree) for   14  bands
              after    3 non-SCF iterations with    4 CG line minimizations
 -2.6738E+00 -1.7084E+00 -1.7062E+00 -1.7048E+00 -5.6560E-01 -5.4004E-01
 -3.2571E-01 -2.9859E-01 -2.9405E-01 -2.4863E-01 -1.9333E-01 -1.3133E-01
 -1.0610E-01  5.9843E-02
 non-scf iterations; kpt #     4  , k= (  0.37500  0.00000  0.50000  ), band residuals:
 res:  2.16E+00  1.31E+00  7.39E-01  1.30E+00  9.57E-01  6.71E-01  6.03E-01  3.77E-01
 res:  2.46E-01  2.47E-01  2.40E-01  3.29E-01  2.24E-01  1.80E-01
 ene: -2.45E+00 -1.48E+00 -1.33E+00 -1.25E+00 -3.87E-01 -3.59E-01 -2.16E-01 -1.66E-01
 ene: -1.29E-01 -9.98E-02 -3.25E-02  4.14E-02  2.29E-01  3.62E-01
 res:  1.24E-02  8.75E-03  1.72E-02  2.00E-02  1.12E-02  1.54E-02  2.14E-02  3.26E-02
 res:  1.40E-02  2.03E-02  4.26E-02  2.40E-02  3.87E-02  6.29E-02
 ene: -2.67E+00 -1.71E+00 -1.71E+00 -1.70E+00 -5.41E-01 -5.33E-01 -3.27E-01 -3.04E-01
 ene: -2.86E-01 -2.74E-01 -1.85E-01 -1.78E-01 -1.21E-01 -1.27E-02
 vtowfk : number of one-way 3D ffts skipped in vtowfk until now =4
     eigenvalues (hartree) for   14  bands
              after    3 non-SCF iterations with    4 CG line minimizations
 -2.6719E+00 -1.7102E+00 -1.7081E+00 -1.7037E+00 -5.4061E-01 -5.3337E-01
 -3.2679E-01 -3.0414E-01 -2.8557E-01 -2.7436E-01 -1.8491E-01 -1.7808E-01
 -1.2140E-01 -1.2664E-02
 non-scf iterations; kpt #     5  , k= (  0.50000  0.00000  0.50000  ), band residuals:
 res:  1.12E+00  1.66E+00  1.35E+00  5.30E-01  4.96E-01  2.11E-01  5.19E-01  2.07E-01
 res:  4.49E-01  2.17E-01  3.50E-01  4.22E-01  4.44E-01  1.29E-01
 ene: -2.48E+00 -1.50E+00 -1.40E+00 -1.38E+00 -3.96E-01 -3.46E-01 -2.15E-01 -1.58E-01
 ene: -1.34E-01 -9.80E-02 -1.62E-02  9.87E-03  1.24E-01  3.89E-01
 res:  6.42E-03  8.98E-03  1.30E-02  1.81E-02  8.70E-03  1.81E-02  2.01E-02  2.04E-02
 res:  1.45E-02  4.58E-02  3.06E-02  2.74E-02  4.53E-02  4.87E-02
 ene: -2.67E+00 -1.71E+00 -1.71E+00 -1.70E+00 -5.31E-01 -5.28E-01 -3.24E-01 -3.04E-01
 ene: -2.98E-01 -2.79E-01 -1.98E-01 -1.60E-01 -1.34E-01  1.90E-03
 vtowfk : number of one-way 3D ffts skipped in vtowfk until now =5
     eigenvalues (hartree) for   14  bands
              after    3 non-SCF iterations with    4 CG line minimizations
 -2.6722E+00 -1.7095E+00 -1.7069E+00 -1.7044E+00 -5.3147E-01 -5.2822E-01
 -3.2406E-01 -3.0402E-01 -2.9752E-01 -2.7930E-01 -1.9809E-01 -1.5988E-01
 -1.3367E-01  1.9032E-03
 non-scf iterations; kpt #     6  , k= (  0.12500  0.12500  0.50000  ), band residuals:
 res:  1.66E+00  8.53E-01  1.30E+00  1.62E+00  7.54E-01  9.15E-01  5.87E-01  2.96E-01
 res:  2.11E-01  2.98E-01  1.95E-01  2.78E-01  2.13E-01  1.94E-01
 ene: -2.49E+00 -1.49E+00 -1.46E+00 -1.37E+00 -4.28E-01 -3.76E-01 -1.80E-01 -1.53E-01
 ene: -1.30E-01 -5.56E-02 -2.79E-02  1.42E-01  1.82E-01  3.39E-01
 res:  9.21E-03  9.30E-03  7.98E-03  1.68E-02  1.03E-02  1.33E-02  3.17E-02  3.27E-02
 res:  2.90E-02  5.26E-02  1.99E-02  4.94E-02  4.91E-02  4.33E-02
 ene: -2.67E+00 -1.71E+00 -1.71E+00 -1.70E+00 -5.70E-01 -5.47E-01 -3.15E-01 -2.92E-01
 ene: -2.73E-01 -2.37E-01 -2.15E-01 -1.51E-01 -1.11E-01 -1.17E-02
 vtowfk : number of one-way 3D ffts skipped in vtowfk until now =6
     eigenvalues (hartree) for   14  bands
              after    3 non-SCF iterations with    4 CG line minimizations
 -2.6749E+00 -1.7096E+00 -1.7064E+00 -1.7031E+00 -5.6987E-01 -5.4748E-01
 -3.1471E-01 -2.9154E-01 -2.7343E-01 -2.3686E-01 -2.1477E-01 -1.5119E-01
 -1.1058E-01 -1.1665E-02
 non-scf iterations; kpt #     7  , k= (  0.25000  0.12500  0.50000  ), band residuals:
 res:  2.17E+00  1.10E+00  1.12E+00  1.53E+00  6.41E-01  5.85E-01  4.12E-01  7.85E-01
 res:  1.91E-01  2.91E-01  3.00E-01  2.08E-01  1.46E-01  1.84E-01
 ene: -2.45E+00 -1.51E+00 -1.42E+00 -1.31E+00 -3.95E-01 -3.32E-01 -1.82E-01 -1.61E-01
 ene: -1.33E-01 -9.03E-02 -4.76E-02 -1.26E-03  1.79E-01  3.73E-01
 res:  1.25E-02  7.03E-03  1.36E-02  1.25E-02  9.74E-03  1.29E-02  2.61E-02  2.73E-02
 res:  1.92E-02  3.03E-02  2.96E-02  2.98E-02  3.36E-02  6.99E-02
 ene: -2.67E+00 -1.71E+00 -1.71E+00 -1.70E+00 -5.48E-01 -5.36E-01 -3.22E-01 -3.10E-01
 ene: -2.71E-01 -2.60E-01 -2.03E-01 -1.65E-01 -1.22E-01 -5.32E-02
 vtowfk : number of one-way 3D ffts skipped in vtowfk until now =7
     eigenvalues (hartree) for   14  bands
              after    3 non-SCF iterations with    4 CG line minimizations
 -2.6711E+00 -1.7101E+00 -1.7068E+00 -1.7050E+00 -5.4814E-01 -5.3572E-01
 -3.2223E-01 -3.1027E-01 -2.7137E-01 -2.5996E-01 -2.0326E-01 -1.6514E-01
 -1.2195E-01 -5.3204E-02
 non-scf iterations; kpt #     8  , k= (  0.37500  0.12500  0.50000  ), band residuals:
 res:  2.01E+00  1.31E+00  7.92E-01  8.79E-01  8.90E-01  4.18E-01  5.98E-01  1.91E-01
 res:  3.43E-01  3.34E-01  2.33E-01  2.46E-01  3.00E-01  2.07E-01
 ene: -2.44E+00 -1.51E+00 -1.44E+00 -1.38E+00 -4.23E-01 -3.86E-01 -2.03E-01 -1.68E-01
 ene: -1.53E-01 -1.14E-01 -7.58E-02 -1.80E-02  2.28E-01  3.74E-01
 res:  1.57E-02  4.82E-03  1.18E-02  1.36E-02  6.97E-03  9.93E-03  2.06E-02  1.51E-02
 res:  3.41E-02  2.25E-02  3.20E-02  2.53E-02  7.83E-02  7.84E-02
 ene: -2.67E+00 -1.71E+00 -1.71E+00 -1.71E+00 -5.32E-01 -5.28E-01 -3.19E-01 -3.15E-01
 ene: -2.83E-01 -2.54E-01 -2.07E-01 -1.84E-01 -1.59E-01 -6.82E-02
 vtowfk : number of one-way 3D ffts skipped in vtowfk until now =8
     eigenvalues (hartree) for   14  bands
              after    3 non-SCF iterations with    4 CG line minimizations
 -2.6711E+00 -1.7097E+00 -1.7083E+00 -1.7062E+00 -5.3246E-01 -5.2821E-01
 -3.1859E-01 -3.1495E-01 -2.8307E-01 -2.5450E-01 -2.0664E-01 -1.8402E-01
 -1.5947E-01 -6.8206E-02
 non-scf iterations; kpt #     9  , k= (  0.25000  0.25000  0.50000  ), band residuals:
 res:  2.18E+00  9.64E-01  1.36E+00  9.53E-01  1.16E+00  1.17E+00  6.61E-01  3.88E-01
 res:  3.02E-01  4.75E-01  2.12E-01  2.11E-01  1.46E-01  1.90E-01
 ene: -2.48E+00 -1.50E+00 -1.46E+00 -1.37E+00 -4.09E-01 -3.56E-01 -2.06E-01 -1.75E-01
 ene: -1.37E-01 -9.94E-02 -5.71E-02  3.71E-02  1.52E-01  4.10E-01
 res:  9.92E-03  6.21E-03  8.68E-03  1.19E-02  9.80E-03  1.66E-02  3.36E-02  3.38E-02
 res:  2.31E-02  7.57E-03  2.46E-02  3.36E-02  2.69E-02  8.47E-02
 ene: -2.67E+00 -1.71E+00 -1.71E+00 -1.71E+00 -5.31E-01 -5.27E-01 -3.34E-01 -3.13E-01
 ene: -2.85E-01 -2.57E-01 -2.31E-01 -1.76E-01 -1.57E-01 -6.85E-02
 vtowfk : number of one-way 3D ffts skipped in vtowfk until now =9
     eigenvalues (hartree) for   14  bands
              after    3 non-SCF iterations with    4 CG line minimizations
 -2.6717E+00 -1.7102E+00 -1.7085E+00 -1.7063E+00 -5.3141E-01 -5.2699E-01
 -3.3376E-01 -3.1313E-01 -2.8500E-01 -2.5717E-01 -2.3056E-01 -1.7567E-01
 -1.5725E-01 -6.8507E-02
 non-scf iterations; kpt #    10  , k= (  0.37500  0.25000  0.50000  ), band residuals:
 res:  1.82E+00  1.28E+00  7.21E-01  8.74E-01  5.85E-01  6.65E-01  3.19E-01  3.64E-01
 res:  2.55E-01  1.89E-01  4.19E-01  2.53E-01  3.38E-01  4.05E-01
 ene: -2.52E+00 -1.45E+00 -1.39E+00 -1.32E+00 -3.86E-01 -3.30E-01 -1.86E-01 -1.62E-01
 ene: -1.36E-01 -9.39E-02 -7.28E-02  5.21E-02  1.85E-01  4.62E-01
 res:  7.53E-03  1.12E-02  1.19E-02  2.07E-02  9.29E-03  1.76E-02  1.56E-02  2.82E-02
 res:  2.66E-02  1.77E-02  1.51E-02  3.53E-02  4.37E-02  6.97E-02
 ene: -2.67E+00 -1.71E+00 -1.71E+00 -1.71E+00 -5.26E-01 -5.19E-01 -3.39E-01 -2.94E-01
 ene: -2.84E-01 -2.64E-01 -2.24E-01 -1.91E-01 -1.67E-01 -8.55E-02
 vtowfk : number of one-way 3D ffts skipped in vtowfk until now =10
     eigenvalues (hartree) for   14  bands
              after    3 non-SCF iterations with    4 CG line minimizations
 -2.6719E+00 -1.7088E+00 -1.7077E+00 -1.7056E+00 -5.2626E-01 -5.1867E-01
 -3.3911E-01 -2.9380E-01 -2.8443E-01 -2.6433E-01 -2.2369E-01 -1.9077E-01
 -1.6680E-01 -8.5484E-02
 Total charge density [el/Bohr^3]
      Maximum=    1.0975E+00  at reduced coord.    0.8750    0.9583    0.9861
      Minimum=    1.5660E-04  at reduced coord.    0.2083    0.5833    0.5000
   Integrated=    2.6000E+01
 ETOT  1  -88.338334744888    -8.834E+01 8.470E-02 2.925E+03
 scprqt: <Vxc>= -1.8071331E-01 hartree

Simple mixing update:
  residual square of the potential :   900.90456997470017
 scfcv: previous iteration took 05 [s]

 ITER STEP NUMBER     2
 vtorho : nnsclo_now=2, note that nnsclo,dbl_nnsclo,istep=0 0 2
 non-scf iterations; kpt #     1  , k= (  0.00000  0.00000  0.50000  ), band residuals:
 res:  1.47E-02  1.10E-02  9.43E-04  7.38E-04  7.25E-03  6.38E-03  3.69E-02  3.92E-02
 res:  2.53E-02  2.32E-02  2.88E-02  1.06E-02  6.80E-03  1.49E-02
 ene: -1.87E+00 -1.02E+00 -9.92E-01 -9.92E-01 -6.84E-01 -6.43E-01 -3.25E-01 -2.41E-01
 ene: -1.90E-01 -1.87E-01 -1.80E-01 -1.78E-01 -5.44E-03  7.02E-02
 res:  1.24E-05  5.04E-06  2.59E-06  3.45E-06  4.19E-05  8.72E-06  3.46E-04  3.12E-05
 res:  1.44E-04  2.02E-04  9.78E-05  1.74E-04  2.27E-03  3.51E-04
 ene: -1.87E+00 -1.02E+00 -9.93E-01 -9.93E-01 -6.85E-01 -6.43E-01 -3.32E-01 -2.42E-01
 ene: -1.93E-01 -1.93E-01 -1.81E-01 -1.81E-01 -3.00E-02  6.61E-02
 vtowfk : number of one-way 3D ffts skipped in vtowfk until now =11
     eigenvalues (hartree) for   14  bands
              after    3 non-SCF iterations with    4 CG line minimizations
 -1.8665E+00 -1.0182E+00 -9.9251E-01 -9.9251E-01 -6.8484E-01 -6.4286E-01
 -3.3241E-01 -2.4197E-01 -1.9293E-01 -1.9289E-01 -1.8141E-01 -1.8139E-01
 -2.9972E-02  6.6088E-02
 non-scf iterations; kpt #     2  , k= (  0.12500  0.00000  0.50000  ), band residuals:
 res:  1.24E-02  1.13E-02  2.59E-03  2.07E-03  6.40E-03  8.46E-03  2.37E-02  3.33E-02
 res:  3.54E-02  1.98E-02  1.49E-02  1.03E-02  1.57E-02  1.69E-02
 ene: -1.86E+00 -1.02E+00 -9.97E-01 -9.93E-01 -6.76E-01 -6.39E-01 -3.20E-01 -2.46E-01
 ene: -2.19E-01 -1.99E-01 -1.91E-01 -1.84E-01 -1.02E-02  7.55E-02
 res:  1.64E-05  5.67E-06  5.16E-06  3.59E-06  5.04E-05  1.17E-04  2.29E-04  4.67E-05
 res:  1.97E-04  6.32E-05  1.83E-04  4.30E-04  1.74E-03  1.95E-03
 ene: -1.87E+00 -1.02E+00 -9.97E-01 -9.93E-01 -6.76E-01 -6.40E-01 -3.24E-01 -2.48E-01
 ene: -2.23E-01 -2.01E-01 -1.94E-01 -1.91E-01 -2.30E-02  6.73E-02
 vtowfk : number of one-way 3D ffts skipped in vtowfk until now =12
     eigenvalues (hartree) for   14  bands
              after    3 non-SCF iterations with    4 CG line minimizations
 -1.8654E+00 -1.0165E+00 -9.9744E-01 -9.9346E-01 -6.7634E-01 -6.4039E-01
 -3.2377E-01 -2.4766E-01 -2.2268E-01 -2.0095E-01 -1.9410E-01 -1.9147E-01
 -2.2972E-02  6.7273E-02
 non-scf iterations; kpt #     3  , k= (  0.25000  0.00000  0.50000  ), band residuals:
 res:  1.14E-02  9.99E-03  8.49E-03  3.49E-03  7.80E-03  1.12E-02  3.03E-02  2.17E-02
 res:  2.28E-02  2.49E-02  1.79E-02  6.71E-03  1.70E-02  2.14E-02
 ene: -1.86E+00 -1.01E+00 -1.01E+00 -9.95E-01 -6.54E-01 -6.31E-01 -3.02E-01 -2.75E-01
 ene: -2.71E-01 -2.24E-01 -2.07E-01 -1.93E-01 -2.71E-02  6.15E-02
 res:  7.83E-06  9.16E-06  1.32E-05  7.89E-06  6.38E-05  3.52E-04  2.39E-04  1.00E-04
 res:  1.79E-04  1.67E-05  2.22E-04  2.44E-04  7.99E-04  1.95E-03
 ene: -1.86E+00 -1.01E+00 -1.01E+00 -9.96E-01 -6.55E-01 -6.34E-01 -3.06E-01 -2.77E-01
 ene: -2.75E-01 -2.25E-01 -2.12E-01 -1.98E-01 -3.63E-02  4.39E-02
 vtowfk : number of one-way 3D ffts skipped in vtowfk until now =13
     eigenvalues (hartree) for   14  bands
              after    3 non-SCF iterations with    4 CG line minimizations
 -1.8639E+00 -1.0126E+00 -1.0092E+00 -9.9555E-01 -6.5465E-01 -6.3404E-01
 -3.0642E-01 -2.7651E-01 -2.7524E-01 -2.2473E-01 -2.1188E-01 -1.9800E-01
 -3.6318E-02  4.3918E-02
 non-scf iterations; kpt #     4  , k= (  0.37500  0.00000  0.50000  ), band residuals:
 res:  8.40E-03  8.88E-03  1.41E-02  5.94E-03  9.22E-03  9.88E-03  2.79E-02  1.35E-02
 res:  7.35E-03  3.57E-02  2.21E-02  1.22E-02  7.13E-03  2.56E-02
 ene: -1.86E+00 -1.02E+00 -1.01E+00 -9.98E-01 -6.29E-01 -6.24E-01 -3.30E-01 -3.12E-01
 ene: -2.78E-01 -2.30E-01 -2.27E-01 -2.03E-01 -5.07E-02  7.96E-02
 res:  6.58E-06  1.08E-05  2.57E-06  3.93E-06  6.01E-05  3.35E-04  1.42E-04  2.53E-05
 res:  8.10E-05  2.21E-05  5.97E-05  2.52E-05  3.68E-04  4.20E-04
 ene: -1.86E+00 -1.02E+00 -1.01E+00 -9.98E-01 -6.30E-01 -6.27E-01 -3.34E-01 -3.12E-01
 ene: -2.79E-01 -2.30E-01 -2.29E-01 -2.03E-01 -5.59E-02  7.33E-02
 vtowfk : number of one-way 3D ffts skipped in vtowfk until now =14
     eigenvalues (hartree) for   14  bands
              after    3 non-SCF iterations with    4 CG line minimizations
 -1.8617E+00 -1.0196E+00 -1.0085E+00 -9.9794E-01 -6.3016E-01 -6.2686E-01
 -3.3407E-01 -3.1247E-01 -2.7934E-01 -2.3047E-01 -2.2872E-01 -2.0294E-01
 -5.5948E-02  7.3304E-02
 non-scf iterations; kpt #     5  , k= (  0.50000  0.00000  0.50000  ), band residuals:
 res:  8.14E-03  1.81E-02  7.32E-03  5.94E-03  1.20E-02  2.16E-02  2.76E-02  2.68E-02
 res:  1.90E-02  3.06E-02  2.37E-02  2.59E-02  6.48E-03  2.95E-02
 ene: -1.86E+00 -1.02E+00 -1.01E+00 -9.99E-01 -6.20E-01 -6.17E-01 -3.52E-01 -3.25E-01
 ene: -2.71E-01 -2.34E-01 -2.23E-01 -2.05E-01 -5.35E-02  8.54E-02
 res:  1.32E-05  9.88E-06  5.35E-06  6.75E-06  2.86E-04  1.28E-04  8.77E-05  1.17E-04
 res:  1.21E-04  2.70E-05  3.05E-04  2.08E-05  5.51E-04  1.46E-03
 ene: -1.86E+00 -1.02E+00 -1.01E+00 -9.99E-01 -6.24E-01 -6.19E-01 -3.54E-01 -3.28E-01
 ene: -2.73E-01 -2.35E-01 -2.31E-01 -2.05E-01 -5.94E-02  6.47E-02
 vtowfk : number of one-way 3D ffts skipped in vtowfk until now =15
     eigenvalues (hartree) for   14  bands
              after    3 non-SCF iterations with    4 CG line minimizations
 -1.8612E+00 -1.0241E+00 -1.0067E+00 -9.9889E-01 -6.2355E-01 -6.1866E-01
 -3.5370E-01 -3.2791E-01 -2.7325E-01 -2.3494E-01 -2.3113E-01 -2.0514E-01
 -5.9434E-02  6.4732E-02
 non-scf iterations; kpt #     6  , k= (  0.12500  0.12500  0.50000  ), band residuals:
 res:  1.20E-02  1.10E-02  5.98E-03  2.67E-03  7.83E-03  1.17E-02  2.57E-02  3.94E-02
 res:  2.79E-02  1.58E-02  1.24E-02  2.29E-02  1.51E-02  2.54E-02
 ene: -1.86E+00 -1.01E+00 -1.00E+00 -9.95E-01 -6.60E-01 -6.33E-01 -3.06E-01 -2.59E-01
 ene: -2.57E-01 -2.27E-01 -2.01E-01 -1.97E-01 -1.70E-03  7.50E-02
 res:  2.76E-05  1.45E-05  1.65E-05  6.50E-06  1.12E-04  2.01E-04  1.84E-04  1.29E-04
 res:  2.07E-04  9.62E-05  8.60E-05  3.77E-04  3.61E-03  6.32E-03
 ene: -1.86E+00 -1.01E+00 -1.01E+00 -9.96E-01 -6.61E-01 -6.36E-01 -3.10E-01 -2.62E-01
 ene: -2.60E-01 -2.29E-01 -2.03E-01 -2.02E-01 -1.96E-02  4.95E-02
 vtowfk : number of one-way 3D ffts skipped in vtowfk until now =16
     eigenvalues (hartree) for   14  bands
              after    3 non-SCF iterations with    4 CG line minimizations
 -1.8648E+00 -1.0138E+00 -1.0054E+00 -9.9562E-01 -6.6122E-01 -6.3597E-01
 -3.0979E-01 -2.6190E-01 -2.6034E-01 -2.2860E-01 -2.0287E-01 -2.0233E-01
 -1.9634E-02  4.9505E-02
 non-scf iterations; kpt #     7  , k= (  0.25000  0.12500  0.50000  ), band residuals:
 res:  9.09E-03  1.02E-02  9.34E-03  5.48E-03  9.95E-03  1.21E-02  3.08E-02  2.94E-02
 res:  2.96E-02  2.72E-02  1.69E-02  9.96E-03  1.24E-02  3.29E-02
 ene: -1.86E+00 -1.01E+00 -1.01E+00 -9.99E-01 -6.37E-01 -6.26E-01 -3.07E-01 -2.92E-01
 ene: -2.82E-01 -2.45E-01 -2.18E-01 -2.15E-01 -2.42E-02  7.81E-02
 res:  8.34E-06  1.79E-05  1.39E-05  7.90E-06  9.67E-05  3.43E-04  2.14E-04  1.96E-04
 res:  8.29E-05  1.10E-04  2.67E-05  1.20E-04  1.21E-03  2.96E-03
 ene: -1.86E+00 -1.01E+00 -1.01E+00 -9.99E-01 -6.38E-01 -6.29E-01 -3.12E-01 -2.95E-01
 ene: -2.83E-01 -2.47E-01 -2.19E-01 -2.17E-01 -3.53E-02  5.95E-02
 vtowfk : number of one-way 3D ffts skipped in vtowfk until now =17
     eigenvalues (hartree) for   14  bands
              after    3 non-SCF iterations with    4 CG line minimizations
 -1.8621E+00 -1.0149E+00 -1.0098E+00 -9.9902E-01 -6.3780E-01 -6.2894E-01
 -3.1247E-01 -2.9535E-01 -2.8314E-01 -2.4689E-01 -2.1852E-01 -2.1674E-01
 -3.5308E-02  5.9530E-02
 non-scf iterations; kpt #     8  , k= (  0.37500  0.12500  0.50000  ), band residuals:
 res:  7.26E-03  9.16E-03  1.38E-02  5.89E-03  1.10E-02  1.08E-02  3.27E-02  1.76E-02
 res:  2.57E-02  2.69E-02  3.84E-02  2.13E-02  2.03E-02  3.58E-02
 ene: -1.86E+00 -1.02E+00 -1.01E+00 -1.00E+00 -6.19E-01 -6.17E-01 -3.35E-01 -3.22E-01
 ene: -2.70E-01 -2.47E-01 -2.28E-01 -2.26E-01 -3.05E-02  1.19E-01
 res:  1.32E-05  1.00E-05  6.38E-06  7.77E-06  3.23E-04  2.13E-04  3.64E-04  9.21E-05
 res:  1.11E-04  1.83E-04  5.42E-05  6.96E-05  8.63E-04  4.28E-03
 ene: -1.86E+00 -1.02E+00 -1.01E+00 -1.00E+00 -6.23E-01 -6.19E-01 -3.42E-01 -3.23E-01
 ene: -2.73E-01 -2.50E-01 -2.29E-01 -2.27E-01 -3.99E-02  9.23E-02
 vtowfk : number of one-way 3D ffts skipped in vtowfk until now =18
     eigenvalues (hartree) for   14  bands
              after    3 non-SCF iterations with    4 CG line minimizations
 -1.8613E+00 -1.0217E+00 -1.0070E+00 -1.0014E+00 -6.2330E-01 -6.1894E-01
 -3.4189E-01 -3.2297E-01 -2.7292E-01 -2.5008E-01 -2.2947E-01 -2.2747E-01
 -3.9921E-02  9.2347E-02
 non-scf iterations; kpt #     9  , k= (  0.25000  0.25000  0.50000  ), band residuals:
 res:  8.12E-03  9.32E-03  1.33E-02  6.14E-03  1.12E-02  7.23E-03  1.97E-02  3.48E-02
 res:  2.59E-02  1.62E-02  1.48E-02  1.16E-02  1.14E-02  3.67E-02
 ene: -1.86E+00 -1.02E+00 -1.01E+00 -1.00E+00 -6.21E-01 -6.18E-01 -3.23E-01 -3.14E-01
 ene: -2.72E-01 -2.64E-01 -2.56E-01 -2.25E-01 -1.29E-02  7.94E-02
 res:  7.80E-06  1.03E-05  4.74E-06  5.65E-06  2.38E-04  1.27E-04  6.10E-05  1.36E-04
 res:  5.62E-05  5.34E-05  2.66E-05  2.62E-05  5.79E-04  5.80E-04
 ene: -1.86E+00 -1.02E+00 -1.01E+00 -1.00E+00 -6.23E-01 -6.19E-01 -3.25E-01 -3.16E-01
 ene: -2.73E-01 -2.65E-01 -2.56E-01 -2.26E-01 -1.69E-02  7.24E-02
 vtowfk : number of one-way 3D ffts skipped in vtowfk until now =19
     eigenvalues (hartree) for   14  bands
              after    3 non-SCF iterations with    4 CG line minimizations
 -1.8611E+00 -1.0185E+00 -1.0069E+00 -1.0048E+00 -6.2304E-01 -6.1924E-01
 -3.2462E-01 -3.1610E-01 -2.7347E-01 -2.6457E-01 -2.5601E-01 -2.2559E-01
 -1.6912E-02  7.2400E-02
 non-scf iterations; kpt #    10  , k= (  0.37500  0.25000  0.50000  ), band residuals:
 res:  6.78E-03  1.13E-02  9.94E-03  8.36E-03  1.07E-02  1.08E-02  4.60E-02  3.49E-02
 res:  2.01E-02  1.48E-02  2.31E-02  1.34E-02  2.36E-02  4.12E-02
 ene: -1.86E+00 -1.02E+00 -1.01E+00 -1.01E+00 -6.16E-01 -6.10E-01 -3.26E-01 -3.23E-01
 ene: -2.79E-01 -2.67E-01 -2.63E-01 -2.31E-01  6.78E-03  8.73E-02
 res:  1.66E-05  1.03E-05  4.88E-06  5.06E-06  4.93E-04  1.10E-04  2.83E-05  2.47E-04
 res:  5.75E-05  3.39E-05  6.35E-05  1.72E-05  9.43E-04  1.39E-03
 ene: -1.86E+00 -1.02E+00 -1.01E+00 -1.01E+00 -6.20E-01 -6.11E-01 -3.27E-01 -3.27E-01
 ene: -2.80E-01 -2.68E-01 -2.64E-01 -2.31E-01 -2.41E-03  7.58E-02
 vtowfk : number of one-way 3D ffts skipped in vtowfk until now =20
     eigenvalues (hartree) for   14  bands
              after    3 non-SCF iterations with    4 CG line minimizations
 -1.8607E+00 -1.0192E+00 -1.0080E+00 -1.0057E+00 -6.2026E-01 -6.1083E-01
 -3.2653E-01 -3.2651E-01 -2.8034E-01 -2.6799E-01 -2.6443E-01 -2.3087E-01
 -2.4146E-03  7.5755E-02
 Total charge density [el/Bohr^3]
      Maximum=    7.1456E-01  at reduced coord.    0.0000    0.0000    0.9792
      Minimum=    7.6032E-07  at reduced coord.    0.4167    0.0000    0.5000
   Integrated=    2.6000E+01
 ETOT  2  -87.892638684567     4.457E-01 6.323E-03 1.337E+04
 scprqt: <Vxc>= -1.5617537E-01 hartree

 Pulay update with  1 previous iterations:
 mixing of old trial potential : alpha(m:m-4)=  0.432      0.568
 scfcv: previous iteration took 04 [s]

 ITER STEP NUMBER     3
 vtorho : nnsclo_now=1, note that nnsclo,dbl_nnsclo,istep=0 0 3
 non-scf iterations; kpt #     1  , k= (  0.00000  0.00000  0.50000  ), band residuals:
 res:  3.54E-03  1.28E-02  7.86E-04  7.79E-04  3.36E-03  1.17E-02  6.49E-03  3.66E-03
 res:  3.07E-03  3.31E-03  3.37E-03  4.18E-03  4.82E-03  1.92E-02
 ene: -2.23E+00 -1.33E+00 -1.32E+00 -1.32E+00 -6.26E-01 -5.80E-01 -3.15E-01 -1.99E-01
 ene: -1.96E-01 -1.83E-01 -1.57E-01 -1.53E-01 -1.09E-01  1.06E-02
 vtowfk : number of one-way 3D ffts skipped in vtowfk until now =21
     eigenvalues (hartree) for   14  bands
              after    2 non-SCF iterations with    4 CG line minimizations
 -2.2274E+00 -1.3254E+00 -1.3175E+00 -1.3174E+00 -6.2620E-01 -5.7976E-01
 -3.1493E-01 -1.9856E-01 -1.9574E-01 -1.8302E-01 -1.5676E-01 -1.5264E-01
 -1.0884E-01  1.0588E-02
 non-scf iterations; kpt #     2  , k= (  0.12500  0.00000  0.50000  ), band residuals:
 res:  3.44E-03  1.20E-02  2.79E-03  1.15E-03  4.60E-03  1.09E-02  6.99E-03  4.27E-03
 res:  7.53E-03  5.64E-03  7.25E-03  4.03E-03  5.11E-03  1.20E-02
 ene: -2.23E+00 -1.32E+00 -1.32E+00 -1.32E+00 -6.18E-01 -5.76E-01 -3.06E-01 -2.16E-01
 ene: -2.02E-01 -1.87E-01 -1.70E-01 -1.48E-01 -1.11E-01 -8.33E-03
 vtowfk : number of one-way 3D ffts skipped in vtowfk until now =22
     eigenvalues (hartree) for   14  bands
              after    2 non-SCF iterations with    4 CG line minimizations
 -2.2264E+00 -1.3249E+00 -1.3195E+00 -1.3179E+00 -6.1786E-01 -5.7618E-01
 -3.0563E-01 -2.1591E-01 -2.0249E-01 -1.8666E-01 -1.6959E-01 -1.4835E-01
 -1.1141E-01 -8.3327E-03
 non-scf iterations; kpt #     3  , k= (  0.25000  0.00000  0.50000  ), band residuals:
 res:  2.96E-03  9.64E-03  7.04E-03  1.89E-03  6.80E-03  8.16E-03  7.12E-03  5.92E-03
 res:  3.80E-03  4.50E-03  2.23E-03  1.00E-02  4.19E-03  6.92E-03
 ene: -2.23E+00 -1.32E+00 -1.32E+00 -1.32E+00 -5.96E-01 -5.67E-01 -2.90E-01 -2.47E-01
 ene: -2.39E-01 -1.94E-01 -1.69E-01 -1.62E-01 -1.33E-01 -2.82E-02
 vtowfk : number of one-way 3D ffts skipped in vtowfk until now =23
     eigenvalues (hartree) for   14  bands
              after    2 non-SCF iterations with    4 CG line minimizations
 -2.2253E+00 -1.3250E+00 -1.3238E+00 -1.3188E+00 -5.9594E-01 -5.6723E-01
 -2.9026E-01 -2.4683E-01 -2.3928E-01 -1.9408E-01 -1.6934E-01 -1.6249E-01
 -1.3255E-01 -2.8231E-02
 non-scf iterations; kpt #     4  , k= (  0.37500  0.00000  0.50000  ), band residuals:
 res:  2.50E-03  1.11E-02  6.95E-03  2.46E-03  8.27E-03  4.83E-03  5.36E-03  4.73E-03
 res:  7.53E-03  4.45E-03  1.26E-03  5.09E-03  5.11E-03  1.21E-02
 ene: -2.22E+00 -1.33E+00 -1.32E+00 -1.32E+00 -5.70E-01 -5.57E-01 -3.07E-01 -2.72E-01
 ene: -2.52E-01 -2.13E-01 -1.76E-01 -1.51E-01 -1.41E-01 -1.11E-02
 vtowfk : number of one-way 3D ffts skipped in vtowfk until now =24
     eigenvalues (hartree) for   14  bands
              after    2 non-SCF iterations with    4 CG line minimizations
 -2.2234E+00 -1.3295E+00 -1.3226E+00 -1.3203E+00 -5.7018E-01 -5.5670E-01
 -3.0700E-01 -2.7249E-01 -2.5200E-01 -2.1279E-01 -1.7601E-01 -1.5060E-01
 -1.4090E-01 -1.1105E-02
 non-scf iterations; kpt #     5  , k= (  0.50000  0.00000  0.50000  ), band residuals:
 res:  1.87E-03  1.19E-02  5.73E-03  2.65E-03  3.31E-03  8.71E-03  4.22E-03  5.37E-03
 res:  7.29E-03  8.67E-04  3.94E-03  3.62E-03  5.75E-03  8.76E-03
 ene: -2.22E+00 -1.33E+00 -1.32E+00 -1.32E+00 -5.58E-01 -5.51E-01 -3.21E-01 -2.86E-01
 ene: -2.57E-01 -2.20E-01 -1.80E-01 -1.44E-01 -1.31E-01  2.87E-02
 vtowfk : number of one-way 3D ffts skipped in vtowfk until now =25
     eigenvalues (hartree) for   14  bands
              after    2 non-SCF iterations with    4 CG line minimizations
 -2.2232E+00 -1.3321E+00 -1.3220E+00 -1.3209E+00 -5.5776E-01 -5.5143E-01
 -3.2115E-01 -2.8582E-01 -2.5667E-01 -2.1961E-01 -1.7977E-01 -1.4426E-01
 -1.3145E-01  2.8658E-02
 non-scf iterations; kpt #     6  , k= (  0.12500  0.12500  0.50000  ), band residuals:
 res:  3.15E-03  1.05E-02  5.76E-03  1.83E-03  6.23E-03  9.06E-03  7.45E-03  3.80E-03
 res:  6.49E-03  6.04E-03  5.06E-03  9.15E-03  4.59E-03  7.01E-03
 ene: -2.23E+00 -1.32E+00 -1.32E+00 -1.32E+00 -6.03E-01 -5.70E-01 -2.91E-01 -2.38E-01
 ene: -2.24E-01 -2.02E-01 -1.79E-01 -1.46E-01 -1.25E-01 -3.02E-02
 vtowfk : number of one-way 3D ffts skipped in vtowfk until now =26
     eigenvalues (hartree) for   14  bands
              after    2 non-SCF iterations with    4 CG line minimizations
 -2.2262E+00 -1.3242E+00 -1.3232E+00 -1.3190E+00 -6.0274E-01 -5.6997E-01
 -2.9091E-01 -2.3844E-01 -2.2380E-01 -2.0183E-01 -1.7856E-01 -1.4650E-01
 -1.2486E-01 -3.0164E-02
 non-scf iterations; kpt #     7  , k= (  0.25000  0.12500  0.50000  ), band residuals:
 res:  2.55E-03  8.91E-03  8.16E-03  2.85E-03  7.98E-03  6.03E-03  6.65E-03  4.55E-03
 res:  6.78E-03  3.27E-03  6.61E-03  5.23E-03  4.42E-03  7.95E-03
 ene: -2.22E+00 -1.33E+00 -1.32E+00 -1.32E+00 -5.78E-01 -5.60E-01 -2.93E-01 -2.58E-01
 ene: -2.48E-01 -2.23E-01 -1.79E-01 -1.59E-01 -1.34E-01 -2.81E-02
 vtowfk : number of one-way 3D ffts skipped in vtowfk until now =27
     eigenvalues (hartree) for   14  bands
              after    2 non-SCF iterations with    4 CG line minimizations
 -2.2238E+00 -1.3274E+00 -1.3229E+00 -1.3207E+00 -5.7839E-01 -5.5979E-01
 -2.9275E-01 -2.5800E-01 -2.4801E-01 -2.2277E-01 -1.7868E-01 -1.5901E-01
 -1.3392E-01 -2.8099E-02
 non-scf iterations; kpt #     8  , k= (  0.37500  0.12500  0.50000  ), band residuals:
 res:  2.07E-03  1.15E-02  6.14E-03  3.49E-03  3.38E-03  8.98E-03  5.00E-03  4.88E-03
 res:  8.12E-03  3.79E-03  4.10E-03  4.65E-03  5.93E-03  1.41E-02
 ene: -2.22E+00 -1.33E+00 -1.32E+00 -1.32E+00 -5.58E-01 -5.51E-01 -3.10E-01 -2.86E-01
 ene: -2.51E-01 -2.23E-01 -1.80E-01 -1.76E-01 -1.23E-01 -8.27E-04
 vtowfk : number of one-way 3D ffts skipped in vtowfk until now =28
     eigenvalues (hartree) for   14  bands
              after    2 non-SCF iterations with    4 CG line minimizations
 -2.2233E+00 -1.3307E+00 -1.3222E+00 -1.3219E+00 -5.5818E-01 -5.5140E-01
 -3.0967E-01 -2.8619E-01 -2.5115E-01 -2.2310E-01 -1.8009E-01 -1.7578E-01
 -1.2255E-01 -8.2724E-04
 non-scf iterations; kpt #     9  , k= (  0.25000  0.25000  0.50000  ), band residuals:
 res:  2.07E-03  1.00E-02  6.36E-03  4.41E-03  3.50E-03  9.14E-03  5.44E-03  3.71E-03
 res:  7.25E-03  4.65E-03  5.61E-03  4.95E-03  4.54E-03  6.26E-03
 ene: -2.22E+00 -1.33E+00 -1.32E+00 -1.32E+00 -5.59E-01 -5.51E-01 -2.96E-01 -2.87E-01
 ene: -2.40E-01 -2.28E-01 -2.16E-01 -1.71E-01 -1.23E-01 -2.14E-02
 vtowfk : number of one-way 3D ffts skipped in vtowfk until now =29
     eigenvalues (hartree) for   14  bands
              after    2 non-SCF iterations with    4 CG line minimizations
 -2.2231E+00 -1.3292E+00 -1.3235E+00 -1.3222E+00 -5.5870E-01 -5.5114E-01
 -2.9594E-01 -2.8726E-01 -2.4006E-01 -2.2811E-01 -2.1639E-01 -1.7089E-01
 -1.2293E-01 -2.1378E-02
 non-scf iterations; kpt #    10  , k= (  0.37500  0.25000  0.50000  ), band residuals:
 res:  1.71E-03  1.06E-02  5.13E-03  5.65E-03  2.36E-03  9.67E-03  5.56E-03  4.28E-03
 res:  5.88E-03  5.73E-03  8.15E-03  3.76E-03  5.98E-03  5.63E-03
 ene: -2.22E+00 -1.33E+00 -1.33E+00 -1.32E+00 -5.50E-01 -5.47E-01 -3.00E-01 -2.91E-01
 ene: -2.51E-01 -2.28E-01 -2.21E-01 -1.84E-01 -1.09E-01  6.18E-03
 vtowfk : number of one-way 3D ffts skipped in vtowfk until now =30
     eigenvalues (hartree) for   14  bands
              after    2 non-SCF iterations with    4 CG line minimizations
 -2.2228E+00 -1.3294E+00 -1.3251E+00 -1.3218E+00 -5.4969E-01 -5.4700E-01
 -3.0001E-01 -2.9109E-01 -2.5077E-01 -2.2759E-01 -2.2088E-01 -1.8411E-01
 -1.0855E-01  6.1823E-03
 Total charge density [el/Bohr^3]
      Maximum=    8.5391E-01  at reduced coord.    0.8333    0.9167    0.0000
      Minimum=    1.7640E-06  at reduced coord.    0.4167    0.2083    0.5000
   Integrated=    2.6000E+01
 ETOT  3  -90.017536794391    -2.125E+00 1.924E-02 6.813E+01
 scprqt: <Vxc>= -1.5523372E-01 hartree

 Pulay update with  2 previous iterations:
 mixing of old trial potential : alpha(m:m-4)=  0.831      0.242E-01  0.145
 scfcv: previous iteration took 02 [s]

 ITER STEP NUMBER     4
 vtorho : nnsclo_now=1, note that nnsclo,dbl_nnsclo,istep=0 0 4
 non-scf iterations; kpt #     1  , k= (  0.00000  0.00000  0.50000  ), band residuals:
 res:  1.45E-04  1.54E-04  1.49E-05  1.02E-05  1.35E-04  1.43E-04  1.29E-04  4.53E-05
 res:  7.90E-05  1.10E-04  8.53E-05  1.42E-04  7.58E-05  9.24E-04
 ene: -2.28E+00 -1.37E+00 -1.37E+00 -1.37E+00 -6.26E-01 -5.84E-01 -3.17E-01 -2.07E-01
 ene: -2.07E-01 -1.83E-01 -1.68E-01 -1.68E-01 -1.24E-01 -1.71E-02
 vtowfk : number of one-way 3D ffts skipped in vtowfk until now =31
     eigenvalues (hartree) for   14  bands
              after    2 non-SCF iterations with    4 CG line minimizations
 -2.2837E+00 -1.3719E+00 -1.3654E+00 -1.3654E+00 -6.2627E-01 -5.8379E-01
 -3.1661E-01 -2.0728E-01 -2.0727E-01 -1.8314E-01 -1.6805E-01 -1.6803E-01
 -1.2375E-01 -1.7083E-02
 non-scf iterations; kpt #     2  , k= (  0.12500  0.00000  0.50000  ), band residuals:
 res:  1.48E-04  1.55E-04  4.85E-05  2.26E-05  1.49E-04  1.39E-04  1.54E-04  1.48E-04
 res:  2.23E-04  1.32E-04  5.95E-05  2.00E-04  1.58E-04  5.26E-04
 ene: -2.28E+00 -1.37E+00 -1.37E+00 -1.37E+00 -6.18E-01 -5.80E-01 -3.07E-01 -2.24E-01
 ene: -2.10E-01 -1.99E-01 -1.80E-01 -1.55E-01 -1.28E-01 -2.83E-02
 vtowfk : number of one-way 3D ffts skipped in vtowfk until now =32
     eigenvalues (hartree) for   14  bands
              after    2 non-SCF iterations with    4 CG line minimizations
 -2.2827E+00 -1.3713E+00 -1.3672E+00 -1.3658E+00 -6.1822E-01 -5.8013E-01
 -3.0735E-01 -2.2425E-01 -2.0954E-01 -1.9867E-01 -1.8020E-01 -1.5531E-01
 -1.2776E-01 -2.8315E-02
 non-scf iterations; kpt #     3  , k= (  0.25000  0.00000  0.50000  ), band residuals:
 res:  1.33E-04  1.29E-04  1.32E-04  4.45E-05  1.56E-04  1.28E-04  1.38E-04  1.62E-04
 res:  1.39E-04  4.20E-05  1.48E-04  1.65E-04  7.62E-05  3.82E-04
 ene: -2.28E+00 -1.37E+00 -1.37E+00 -1.37E+00 -5.97E-01 -5.71E-01 -2.93E-01 -2.51E-01
 ene: -2.45E-01 -2.03E-01 -1.77E-01 -1.66E-01 -1.47E-01 -4.42E-02
 vtowfk : number of one-way 3D ffts skipped in vtowfk until now =33
     eigenvalues (hartree) for   14  bands
              after    2 non-SCF iterations with    4 CG line minimizations
 -2.2816E+00 -1.3719E+00 -1.3705E+00 -1.3667E+00 -5.9691E-01 -5.7059E-01
 -2.9335E-01 -2.5145E-01 -2.4467E-01 -2.0312E-01 -1.7723E-01 -1.6611E-01
 -1.4689E-01 -4.4245E-02
 non-scf iterations; kpt #     4  , k= (  0.37500  0.00000  0.50000  ), band residuals:
 res:  1.06E-04  2.27E-04  1.06E-04  6.58E-05  1.70E-04  8.53E-05  1.02E-04  8.84E-05
 res:  1.84E-04  3.87E-05  2.00E-04  2.24E-04  1.61E-04  8.59E-04
 ene: -2.28E+00 -1.38E+00 -1.37E+00 -1.37E+00 -5.72E-01 -5.60E-01 -3.10E-01 -2.76E-01
 ene: -2.57E-01 -2.21E-01 -1.82E-01 -1.56E-01 -1.52E-01 -3.36E-02
 vtowfk : number of one-way 3D ffts skipped in vtowfk until now =34
     eigenvalues (hartree) for   14  bands
              after    2 non-SCF iterations with    4 CG line minimizations
 -2.2799E+00 -1.3760E+00 -1.3694E+00 -1.3679E+00 -5.7171E-01 -5.5960E-01
 -3.0995E-01 -2.7635E-01 -2.5707E-01 -2.2104E-01 -1.8187E-01 -1.5603E-01
 -1.5206E-01 -3.3565E-02
 non-scf iterations; kpt #     5  , k= (  0.50000  0.00000  0.50000  ), band residuals:
 res:  7.92E-05  2.72E-04  9.38E-05  7.02E-05  1.92E-04  9.26E-05  1.74E-04  1.07E-04
 res:  1.16E-04  3.61E-05  1.80E-04  2.25E-04  3.62E-04  2.14E-03
 ene: -2.28E+00 -1.38E+00 -1.37E+00 -1.37E+00 -5.59E-01 -5.54E-01 -3.23E-01 -2.90E-01
 ene: -2.62E-01 -2.28E-01 -1.87E-01 -1.48E-01 -1.41E-01  1.05E-02
 vtowfk : number of one-way 3D ffts skipped in vtowfk until now =35
     eigenvalues (hartree) for   14  bands
              after    2 non-SCF iterations with    4 CG line minimizations
 -2.2796E+00 -1.3781E+00 -1.3689E+00 -1.3683E+00 -5.5950E-01 -5.5449E-01
 -3.2285E-01 -2.8976E-01 -2.6198E-01 -2.2754E-01 -1.8707E-01 -1.4823E-01
 -1.4088E-01  1.0475E-02
 non-scf iterations; kpt #     6  , k= (  0.12500  0.12500  0.50000  ), band residuals:
 res:  1.37E-04  1.48E-04  1.09E-04  4.20E-05  1.56E-04  1.35E-04  1.74E-04  1.59E-04
 res:  1.81E-04  6.20E-05  1.82E-04  1.48E-04  7.65E-05  4.08E-04
 ene: -2.28E+00 -1.37E+00 -1.37E+00 -1.37E+00 -6.03E-01 -5.73E-01 -2.94E-01 -2.45E-01
 ene: -2.30E-01 -2.10E-01 -1.86E-01 -1.51E-01 -1.40E-01 -4.61E-02
 vtowfk : number of one-way 3D ffts skipped in vtowfk until now =36
     eigenvalues (hartree) for   14  bands
              after    2 non-SCF iterations with    4 CG line minimizations
 -2.2826E+00 -1.3708E+00 -1.3704E+00 -1.3668E+00 -6.0349E-01 -5.7350E-01
 -2.9410E-01 -2.4539E-01 -2.2959E-01 -2.1043E-01 -1.8634E-01 -1.5068E-01
 -1.4009E-01 -4.6126E-02
 non-scf iterations; kpt #     7  , k= (  0.25000  0.12500  0.50000  ), band residuals:
 res:  1.15E-04  1.81E-04  1.23E-04  6.73E-05  1.72E-04  1.04E-04  1.32E-04  1.25E-04
 res:  2.15E-04  8.73E-05  2.25E-04  2.64E-04  1.35E-04  9.24E-04
 ene: -2.28E+00 -1.37E+00 -1.37E+00 -1.37E+00 -5.80E-01 -5.63E-01 -2.96E-01 -2.63E-01
 ene: -2.52E-01 -2.30E-01 -1.85E-01 -1.65E-01 -1.47E-01 -4.66E-02
 vtowfk : number of one-way 3D ffts skipped in vtowfk until now =37
     eigenvalues (hartree) for   14  bands
              after    2 non-SCF iterations with    4 CG line minimizations
 -2.2801E+00 -1.3739E+00 -1.3697E+00 -1.3683E+00 -5.7979E-01 -5.6287E-01
 -2.9630E-01 -2.6295E-01 -2.5191E-01 -2.2999E-01 -1.8465E-01 -1.6466E-01
 -1.4741E-01 -4.6607E-02
 non-scf iterations; kpt #     8  , k= (  0.37500  0.12500  0.50000  ), band residuals:
 res:  9.03E-05  2.45E-04  1.04E-04  8.19E-05  1.86E-04  7.75E-05  1.69E-04  1.10E-04
 res:  2.07E-04  1.31E-04  2.38E-04  2.51E-04  5.47E-04  3.92E-03
 ene: -2.28E+00 -1.38E+00 -1.37E+00 -1.37E+00 -5.60E-01 -5.54E-01 -3.12E-01 -2.91E-01
 ene: -2.57E-01 -2.30E-01 -1.84E-01 -1.83E-01 -1.35E-01 -3.18E-02
 vtowfk : number of one-way 3D ffts skipped in vtowfk until now =38
     eigenvalues (hartree) for   14  bands
              after    2 non-SCF iterations with    4 CG line minimizations
 -2.2797E+00 -1.3769E+00 -1.3692E+00 -1.3691E+00 -5.6002E-01 -5.5419E-01
 -3.1212E-01 -2.9081E-01 -2.5707E-01 -2.3018E-01 -1.8425E-01 -1.8321E-01
 -1.3465E-01 -3.1824E-02
 non-scf iterations; kpt #     9  , k= (  0.25000  0.25000  0.50000  ), band residuals:
 res:  9.62E-05  2.04E-04  9.31E-05  1.13E-04  1.81E-04  7.16E-05  1.28E-04  5.91E-05
 res:  2.92E-04  1.19E-04  2.05E-04  2.16E-04  1.60E-04  8.76E-04
 ene: -2.28E+00 -1.38E+00 -1.37E+00 -1.37E+00 -5.61E-01 -5.54E-01 -2.99E-01 -2.92E-01
 ene: -2.45E-01 -2.34E-01 -2.20E-01 -1.78E-01 -1.37E-01 -3.96E-02
 vtowfk : number of one-way 3D ffts skipped in vtowfk until now =39
     eigenvalues (hartree) for   14  bands
              after    2 non-SCF iterations with    4 CG line minimizations
 -2.2795E+00 -1.3755E+00 -1.3706E+00 -1.3691E+00 -5.6055E-01 -5.5387E-01
 -2.9858E-01 -2.9164E-01 -2.4503E-01 -2.3369E-01 -2.2015E-01 -1.7776E-01
 -1.3676E-01 -3.9563E-02
 non-scf iterations; kpt #    10  , k= (  0.37500  0.25000  0.50000  ), band residuals:
 res:  8.18E-05  2.10E-04  1.12E-04  1.13E-04  1.77E-04  5.88E-05  8.41E-05  2.33E-04
 res:  2.01E-04  2.53E-04  1.38E-04  1.47E-04  3.95E-04  3.48E-04
 ene: -2.28E+00 -1.38E+00 -1.37E+00 -1.37E+00 -5.52E-01 -5.50E-01 -3.06E-01 -2.93E-01
 ene: -2.55E-01 -2.31E-01 -2.25E-01 -1.92E-01 -1.24E-01 -1.18E-02
 vtowfk : number of one-way 3D ffts skipped in vtowfk until now =40
     eigenvalues (hartree) for   14  bands
              after    2 non-SCF iterations with    4 CG line minimizations
 -2.2792E+00 -1.3757E+00 -1.3720E+00 -1.3688E+00 -5.5174E-01 -5.4962E-01
 -3.0553E-01 -2.9334E-01 -2.5538E-01 -2.3140E-01 -2.2520E-01 -1.9246E-01
 -1.2374E-01 -1.1756E-02
 Total charge density [el/Bohr^3]
      Maximum=    8.8072E-01  at reduced coord.    0.8333    0.9167    0.0000
      Minimum=    1.0981E-07  at reduced coord.    0.3750    0.0000    0.5000
   Integrated=    2.6000E+01
 ETOT  4  -90.057189980332    -3.965E-02 3.925E-03 1.003E+01
 scprqt: <Vxc>= -1.4597360E-01 hartree

 Pulay update with  3 previous iterations:
 mixing of old trial potential : alpha(m:m-4)=  0.773      0.168      0.109E-01  0.483E-01
 scfcv: previous iteration took 02 [s]

 ITER STEP NUMBER     5
 vtorho : nnsclo_now=1, note that nnsclo,dbl_nnsclo,istep=0 0 5
 non-scf iterations; kpt #     1  , k= (  0.00000  0.00000  0.50000  ), band residuals:
 res:  1.43E-06  1.39E-06  1.71E-07  1.85E-07  7.53E-07  9.52E-07  1.05E-06  5.34E-06
 res:  5.74E-06  5.47E-07  2.03E-05  1.75E-05  3.52E-06  7.06E-05
 ene: -2.28E+00 -1.37E+00 -1.36E+00 -1.36E+00 -6.15E-01 -5.73E-01 -3.06E-01 -1.97E-01
 ene: -1.97E-01 -1.72E-01 -1.58E-01 -1.58E-01 -1.14E-01 -7.27E-03
 vtowfk : number of one-way 3D ffts skipped in vtowfk until now =41
     eigenvalues (hartree) for   14  bands
              after    2 non-SCF iterations with    4 CG line minimizations
 -2.2780E+00 -1.3656E+00 -1.3588E+00 -1.3588E+00 -6.1496E-01 -5.7260E-01
 -3.0559E-01 -1.9703E-01 -1.9702E-01 -1.7237E-01 -1.5803E-01 -1.5802E-01
 -1.1409E-01 -7.2676E-03
 non-scf iterations; kpt #     2  , k= (  0.12500  0.00000  0.50000  ), band residuals:
 res:  1.40E-06  1.41E-06  4.34E-07  2.38E-07  1.10E-06  1.06E-06  1.76E-06  1.71E-05
 res:  9.52E-06  1.60E-05  1.68E-05  1.85E-05  4.40E-05  1.04E-04
 ene: -2.28E+00 -1.37E+00 -1.36E+00 -1.36E+00 -6.07E-01 -5.69E-01 -2.96E-01 -2.14E-01
 ene: -1.99E-01 -1.88E-01 -1.70E-01 -1.45E-01 -1.18E-01 -1.88E-02
 vtowfk : number of one-way 3D ffts skipped in vtowfk until now =42
     eigenvalues (hartree) for   14  bands
              after    2 non-SCF iterations with    4 CG line minimizations
 -2.2770E+00 -1.3651E+00 -1.3605E+00 -1.3592E+00 -6.0691E-01 -5.6893E-01
 -2.9632E-01 -2.1389E-01 -1.9914E-01 -1.8842E-01 -1.7008E-01 -1.4457E-01
 -1.1817E-01 -1.8760E-02
 non-scf iterations; kpt #     3  , k= (  0.25000  0.00000  0.50000  ), band residuals:
 res:  1.27E-06  9.05E-07  1.24E-06  3.86E-07  9.74E-07  1.51E-06  2.15E-06  3.35E-06
 res:  1.03E-05  6.24E-06  6.00E-05  6.28E-06  1.45E-05  5.26E-04
 ene: -2.28E+00 -1.37E+00 -1.36E+00 -1.36E+00 -5.86E-01 -5.59E-01 -2.82E-01 -2.41E-01
 ene: -2.34E-01 -1.93E-01 -1.67E-01 -1.55E-01 -1.37E-01 -3.55E-02
 vtowfk : number of one-way 3D ffts skipped in vtowfk until now =43
     eigenvalues (hartree) for   14  bands
              after    2 non-SCF iterations with    4 CG line minimizations
 -2.2760E+00 -1.3652E+00 -1.3643E+00 -1.3600E+00 -5.8561E-01 -5.5936E-01
 -2.8238E-01 -2.4062E-01 -2.3409E-01 -1.9286E-01 -1.6685E-01 -1.5508E-01
 -1.3707E-01 -3.5451E-02
 non-scf iterations; kpt #     4  , k= (  0.37500  0.00000  0.50000  ), band residuals:
 res:  1.00E-06  1.50E-06  1.06E-06  5.40E-07  8.97E-07  9.66E-07  1.60E-06  1.89E-06
 res:  1.44E-06  3.46E-06  8.08E-06  1.36E-04  5.14E-06  1.63E-04
 ene: -2.27E+00 -1.37E+00 -1.36E+00 -1.36E+00 -5.60E-01 -5.48E-01 -2.99E-01 -2.66E-01
 ene: -2.46E-01 -2.11E-01 -1.71E-01 -1.45E-01 -1.42E-01 -2.48E-02
 vtowfk : number of one-way 3D ffts skipped in vtowfk until now =44
     eigenvalues (hartree) for   14  bands
              after    2 non-SCF iterations with    4 CG line minimizations
 -2.2743E+00 -1.3692E+00 -1.3632E+00 -1.3612E+00 -5.6040E-01 -5.4834E-01
 -2.9903E-01 -2.6551E-01 -2.4599E-01 -2.1070E-01 -1.7103E-01 -1.4535E-01
 -1.4216E-01 -2.4758E-02
 non-scf iterations; kpt #     5  , k= (  0.50000  0.00000  0.50000  ), band residuals:
 res:  7.15E-07  1.81E-06  9.79E-07  5.83E-07  1.63E-06  1.69E-06  5.38E-06  3.81E-06
 res:  2.07E-06  2.98E-06  1.29E-05  1.10E-04  6.00E-05  5.33E-03
 ene: -2.27E+00 -1.37E+00 -1.36E+00 -1.36E+00 -5.48E-01 -5.43E-01 -3.12E-01 -2.79E-01
 ene: -2.51E-01 -2.17E-01 -1.76E-01 -1.37E-01 -1.31E-01  1.03E-02
 vtowfk : number of one-way 3D ffts skipped in vtowfk until now =45
     eigenvalues (hartree) for   14  bands
              after    2 non-SCF iterations with    4 CG line minimizations
 -2.2740E+00 -1.3712E+00 -1.3627E+00 -1.3617E+00 -5.4819E-01 -5.4322E-01
 -3.1189E-01 -2.7885E-01 -2.5105E-01 -2.1718E-01 -1.7633E-01 -1.3728E-01
 -1.3094E-01  1.0287E-02
 non-scf iterations; kpt #     6  , k= (  0.12500  0.12500  0.50000  ), band residuals:
 res:  1.30E-06  1.35E-06  7.34E-07  3.55E-07  1.05E-06  1.41E-06  3.44E-06  6.38E-06
 res:  1.59E-05  8.87E-06  4.72E-05  4.84E-06  1.77E-05  4.63E-04
 ene: -2.28E+00 -1.36E+00 -1.36E+00 -1.36E+00 -5.92E-01 -5.62E-01 -2.83E-01 -2.35E-01
 ene: -2.19E-01 -2.00E-01 -1.76E-01 -1.40E-01 -1.30E-01 -3.72E-02
 vtowfk : number of one-way 3D ffts skipped in vtowfk until now =46
     eigenvalues (hartree) for   14  bands
              after    2 non-SCF iterations with    4 CG line minimizations
 -2.2769E+00 -1.3646E+00 -1.3637E+00 -1.3601E+00 -5.9219E-01 -5.6228E-01
 -2.8308E-01 -2.3476E-01 -2.1911E-01 -2.0008E-01 -1.7596E-01 -1.3966E-01
 -1.3030E-01 -3.7175E-02
 non-scf iterations; kpt #     7  , k= (  0.25000  0.12500  0.50000  ), band residuals:
 res:  1.06E-06  1.26E-06  1.25E-06  5.12E-07  1.45E-06  1.49E-06  3.68E-06  6.68E-06
 res:  4.95E-06  6.69E-06  4.00E-05  1.80E-05  6.57E-05  1.04E-03
 ene: -2.27E+00 -1.37E+00 -1.36E+00 -1.36E+00 -5.68E-01 -5.52E-01 -2.85E-01 -2.52E-01
 ene: -2.41E-01 -2.20E-01 -1.74E-01 -1.54E-01 -1.38E-01 -3.92E-02
 vtowfk : number of one-way 3D ffts skipped in vtowfk until now =47
     eigenvalues (hartree) for   14  bands
              after    2 non-SCF iterations with    4 CG line minimizations
 -2.2745E+00 -1.3671E+00 -1.3636E+00 -1.3616E+00 -5.6849E-01 -5.5162E-01
 -2.8543E-01 -2.5225E-01 -2.4080E-01 -2.1953E-01 -1.7410E-01 -1.5372E-01
 -1.3761E-01 -3.9171E-02
 non-scf iterations; kpt #     8  , k= (  0.37500  0.12500  0.50000  ), band residuals:
 res:  8.66E-07  1.67E-06  6.10E-07  1.09E-06  2.26E-06  1.21E-06  7.17E-06  3.32E-06
 res:  9.98E-06  8.82E-06  2.33E-05  1.48E-05  9.18E-05  1.89E-03
 ene: -2.27E+00 -1.37E+00 -1.36E+00 -1.36E+00 -5.49E-01 -5.43E-01 -3.01E-01 -2.80E-01
 ene: -2.46E-01 -2.20E-01 -1.73E-01 -1.72E-01 -1.25E-01 -2.72E-02
 vtowfk : number of one-way 3D ffts skipped in vtowfk until now =48
     eigenvalues (hartree) for   14  bands
              after    2 non-SCF iterations with    4 CG line minimizations
 -2.2741E+00 -1.3701E+00 -1.3630E+00 -1.3625E+00 -5.4872E-01 -5.4291E-01
 -3.0118E-01 -2.8002E-01 -2.4609E-01 -2.1963E-01 -1.7336E-01 -1.7242E-01
 -1.2499E-01 -2.7192E-02
 non-scf iterations; kpt #     9  , k= (  0.25000  0.25000  0.50000  ), band residuals:
 res:  9.18E-07  1.47E-06  6.70E-07  1.16E-06  2.20E-06  8.09E-07  3.44E-06  2.25E-06
 res:  9.92E-06  3.20E-06  1.12E-05  1.15E-05  6.17E-05  1.11E-03
 ene: -2.27E+00 -1.37E+00 -1.36E+00 -1.36E+00 -5.49E-01 -5.43E-01 -2.88E-01 -2.81E-01
 ene: -2.34E-01 -2.23E-01 -2.09E-01 -1.67E-01 -1.27E-01 -3.18E-02
 vtowfk : number of one-way 3D ffts skipped in vtowfk until now =49
     eigenvalues (hartree) for   14  bands
              after    2 non-SCF iterations with    4 CG line minimizations
 -2.2739E+00 -1.3687E+00 -1.3639E+00 -1.3629E+00 -5.4925E-01 -5.4259E-01
 -2.8766E-01 -2.8096E-01 -2.3381E-01 -2.2295E-01 -2.0937E-01 -1.6686E-01
 -1.2714E-01 -3.1785E-02
 non-scf iterations; kpt #    10  , k= (  0.37500  0.25000  0.50000  ), band residuals:
 res:  6.94E-07  1.47E-06  7.90E-07  1.08E-06  1.48E-06  5.16E-07  4.90E-06  5.51E-06
 res:  9.39E-06  8.53E-06  2.72E-06  5.86E-06  1.09E-04  2.12E-03
 ene: -2.27E+00 -1.37E+00 -1.37E+00 -1.36E+00 -5.40E-01 -5.38E-01 -2.95E-01 -2.82E-01
 ene: -2.44E-01 -2.20E-01 -2.14E-01 -1.82E-01 -1.14E-01 -5.57E-03
 vtowfk : number of one-way 3D ffts skipped in vtowfk until now =50
     eigenvalues (hartree) for   14  bands
              after    2 non-SCF iterations with    4 CG line minimizations
 -2.2736E+00 -1.3689E+00 -1.3652E+00 -1.3626E+00 -5.4043E-01 -5.3833E-01
 -2.9486E-01 -2.8237E-01 -2.4446E-01 -2.2031E-01 -2.1425E-01 -1.8172E-01
 -1.1444E-01 -5.5697E-03
 Total charge density [el/Bohr^3]
      Maximum=    8.8612E-01  at reduced coord.    0.8333    0.9167    0.0000
      Minimum=    8.4438E-08  at reduced coord.    0.3750    0.0000    0.5000
   Integrated=    2.6000E+01
 ETOT  5  -90.057431488085    -2.415E-04 5.332E-03 2.686E+01
 scprqt: <Vxc>= -1.4584719E-01 hartree

 Pulay update with  4 previous iterations:
 mixing of old trial potential : alpha(m:m-4)=   1.12     -0.300      0.986E-01  0.427E-01  0.410E-01
 scfcv: previous iteration took 02 [s]

 ITER STEP NUMBER     6
 vtorho : nnsclo_now=1, note that nnsclo,dbl_nnsclo,istep=0 0 6
 non-scf iterations; kpt #     1  , k= (  0.00000  0.00000  0.50000  ), band residuals:
 res:  7.52E-07  9.28E-07  8.32E-08  1.07E-07  4.70E-06  3.73E-06  1.10E-05  1.18E-06
 res:  5.23E-06  3.42E-06  8.66E-06  8.00E-06  9.09E-06  5.26E-05
 ene: -2.27E+00 -1.36E+00 -1.35E+00 -1.35E+00 -6.13E-01 -5.72E-01 -3.03E-01 -1.91E-01
 ene: -1.91E-01 -1.72E-01 -1.53E-01 -1.53E-01 -1.10E-01 -4.21E-03
 vtowfk : number of one-way 3D ffts skipped in vtowfk until now =51
     eigenvalues (hartree) for   14  bands
              after    2 non-SCF iterations with    4 CG line minimizations
 -2.2683E+00 -1.3571E+00 -1.3490E+00 -1.3490E+00 -6.1322E-01 -5.7156E-01
 -3.0255E-01 -1.9136E-01 -1.9136E-01 -1.7151E-01 -1.5347E-01 -1.5347E-01
 -1.0973E-01 -4.2105E-03
 non-scf iterations; kpt #     2  , k= (  0.12500  0.00000  0.50000  ), band residuals:
 res:  7.55E-07  9.26E-07  2.45E-07  1.32E-07  4.85E-06  3.93E-06  1.02E-05  7.34E-06
 res:  9.45E-06  4.30E-06  4.01E-06  6.79E-06  1.07E-05  6.15E-05
 ene: -2.27E+00 -1.36E+00 -1.35E+00 -1.35E+00 -6.05E-01 -5.68E-01 -2.93E-01 -2.09E-01
 ene: -1.96E-01 -1.83E-01 -1.66E-01 -1.43E-01 -1.14E-01 -1.51E-02
 vtowfk : number of one-way 3D ffts skipped in vtowfk until now =52
     eigenvalues (hartree) for   14  bands
              after    2 non-SCF iterations with    4 CG line minimizations
 -2.2673E+00 -1.3566E+00 -1.3508E+00 -1.3495E+00 -6.0519E-01 -5.6785E-01
 -2.9329E-01 -2.0885E-01 -1.9636E-01 -1.8300E-01 -1.6569E-01 -1.4284E-01
 -1.1368E-01 -1.5097E-02
 non-scf iterations; kpt #     3  , k= (  0.25000  0.00000  0.50000  ), band residuals:
 res:  7.58E-07  6.49E-07  8.16E-07  2.37E-07  5.15E-06  4.36E-06  1.16E-05  9.45E-06
 res:  4.42E-06  2.08E-06  1.22E-05  3.14E-06  8.61E-06  5.03E-05
 ene: -2.27E+00 -1.36E+00 -1.36E+00 -1.35E+00 -5.84E-01 -5.58E-01 -2.79E-01 -2.37E-01
 ene: -2.31E-01 -1.89E-01 -1.62E-01 -1.54E-01 -1.32E-01 -3.13E-02
 vtowfk : number of one-way 3D ffts skipped in vtowfk until now =53
     eigenvalues (hartree) for   14  bands
              after    2 non-SCF iterations with    4 CG line minimizations
 -2.2663E+00 -1.3557E+00 -1.3555E+00 -1.3503E+00 -5.8393E-01 -5.5817E-01
 -2.7894E-01 -2.3749E-01 -2.3131E-01 -1.8869E-01 -1.6236E-01 -1.5423E-01
 -1.3199E-01 -3.1342E-02
 non-scf iterations; kpt #     4  , k= (  0.37500  0.00000  0.50000  ), band residuals:
 res:  7.44E-07  1.04E-06  6.85E-07  3.77E-07  5.63E-06  4.92E-06  8.78E-06  3.13E-06
 res:  8.75E-06  1.53E-06  5.64E-06  4.24E-06  8.74E-06  5.32E-05
 ene: -2.26E+00 -1.36E+00 -1.35E+00 -1.35E+00 -5.59E-01 -5.47E-01 -2.96E-01 -2.63E-01
 ene: -2.43E-01 -2.07E-01 -1.70E-01 -1.43E-01 -1.37E-01 -1.92E-02
 vtowfk : number of one-way 3D ffts skipped in vtowfk until now =54
     eigenvalues (hartree) for   14  bands
              after    2 non-SCF iterations with    4 CG line minimizations
 -2.2645E+00 -1.3596E+00 -1.3547E+00 -1.3515E+00 -5.5874E-01 -5.4700E-01
 -2.9592E-01 -2.6330E-01 -2.4337E-01 -2.0666E-01 -1.6974E-01 -1.4257E-01
 -1.3713E-01 -1.9204E-02
 non-scf iterations; kpt #     5  , k= (  0.50000  0.00000  0.50000  ), band residuals:
 res:  6.50E-07  1.26E-06  6.44E-07  4.36E-07  5.93E-06  5.19E-06  5.34E-06  4.04E-06
 res:  1.02E-05  1.33E-06  7.00E-06  1.99E-06  9.36E-06  1.93E-03
 ene: -2.26E+00 -1.36E+00 -1.35E+00 -1.35E+00 -5.47E-01 -5.42E-01 -3.09E-01 -2.77E-01
 ene: -2.48E-01 -2.13E-01 -1.75E-01 -1.35E-01 -1.27E-01  3.79E-03
 vtowfk : number of one-way 3D ffts skipped in vtowfk until now =55
     eigenvalues (hartree) for   14  bands
              after    2 non-SCF iterations with    4 CG line minimizations
 -2.2642E+00 -1.3617E+00 -1.3541E+00 -1.3520E+00 -5.4652E-01 -5.4180E-01
 -3.0939E-01 -2.7691E-01 -2.4767E-01 -2.1318E-01 -1.7480E-01 -1.3545E-01
 -1.2667E-01  3.7915E-03
 non-scf iterations; kpt #     6  , k= (  0.12500  0.12500  0.50000  ), band residuals:
 res:  7.55E-07  8.84E-07  5.00E-07  2.41E-07  5.05E-06  4.23E-06  1.14E-05  1.04E-05
 res:  6.18E-06  3.79E-06  1.17E-05  3.95E-06  9.33E-06  7.76E-05
 ene: -2.27E+00 -1.36E+00 -1.35E+00 -1.35E+00 -5.91E-01 -5.61E-01 -2.80E-01 -2.31E-01
 ene: -2.16E-01 -1.96E-01 -1.71E-01 -1.39E-01 -1.25E-01 -3.37E-02
 vtowfk : number of one-way 3D ffts skipped in vtowfk until now =56
     eigenvalues (hartree) for   14  bands
              after    2 non-SCF iterations with    4 CG line minimizations
[...]
  -6.43074   -5.96119   -5.45897   -4.75107   -2.61553   -0.86099    0.20065    0.69892
 kpt#  28, nband= 16, wtk=  1.00000, kpt=  0.3333  0.3333  0.0000 (reduced coord)
 -61.39520  -36.75610  -36.71764  -36.63188  -14.36592  -14.33479   -7.77675   -7.02484
  -6.50637   -5.99417   -5.43687   -4.77759   -2.59239   -0.88885    0.18656    0.72605
 kpt#  29, nband= 16, wtk=  1.00000, kpt=  0.3167  0.3167  0.0000 (reduced coord)
 -61.39493  -36.76070  -36.71038  -36.63292  -14.37576  -14.34028   -7.75937   -7.10374
  -6.42092   -5.97484   -5.46182   -4.74694   -2.61893   -0.85946    0.19748    0.69554
 kpt#  30, nband= 16, wtk=  1.00000, kpt=  0.3000  0.3000  0.0000 (reduced coord)
 -61.41032  -36.77063  -36.69703  -36.63968  -14.40795  -14.35756   -7.70525   -7.24574
  -6.25911   -5.91819   -5.52697   -4.66241   -2.69618   -0.78091    0.22266    0.60346
 kpt#  31, nband= 16, wtk=  1.00000, kpt=  0.2833  0.2833  0.0000 (reduced coord)
 -61.42574  -36.78289  -36.68358  -36.63998  -14.46499  -14.38691   -7.61213   -7.37154
  -6.13078   -5.79628   -5.60970   -4.54271   -2.80819   -0.67749    0.25026    0.45813
 kpt#  32, nband= 16, wtk=  1.00000, kpt=  0.2667  0.2667  0.0000 (reduced coord)
 -61.43591  -36.78569  -36.66599  -36.64643  -14.54692  -14.42830   -7.48035   -7.45664
  -6.07131   -5.69150   -5.60152   -4.40539   -2.93403   -0.58633    0.26625    0.28863
 kpt#  33, nband= 16, wtk=  1.00000, kpt=  0.2500  0.2500  0.0000 (reduced coord)
 -61.42886  -36.77964  -36.64890  -36.64748  -14.65274  -14.48003   -7.49699   -7.31119
  -6.05497   -5.76002   -5.37433   -4.26095   -3.05587   -0.54234    0.11837    0.26036
 kpt#  34, nband= 16, wtk=  1.00000, kpt=  0.2333  0.2333  0.0000 (reduced coord)
 -61.41177  -36.76754  -36.65010  -36.62632  -14.77962  -14.54097   -7.49416   -7.10806
  -6.06703   -5.80706   -5.14117   -4.11723   -3.16191   -0.57282   -0.00690    0.22637
 kpt#  35, nband= 16, wtk=  1.00000, kpt=  0.2167  0.2167  0.0000 (reduced coord)
 -61.42392  -36.75531  -36.65594  -36.61274  -14.92447  -14.60966   -7.45555   -6.87648
  -6.10392   -5.82743   -4.91506   -3.98081   -3.24774   -0.66467   -0.08694    0.16372
 kpt#  36, nband= 16, wtk=  1.00000, kpt=  0.2000  0.2000  0.0000 (reduced coord)
 -61.45169  -36.74608  -36.66245  -36.60080  -15.08225  -14.68338   -7.39193   -6.62354
  -6.15771   -5.81549   -4.70637   -3.85595   -3.31273   -0.76592   -0.14434    0.08043
 kpt#  37, nband= 16, wtk=  1.00000, kpt=  0.1833  0.1833  0.0000 (reduced coord)
 -61.44326  -36.71911  -36.66865  -36.58427  -15.24722  -14.75993   -7.32038   -6.36140
  -6.21018   -5.76247   -4.52731   -3.74678   -3.35402   -0.83318   -0.20101   -0.01244
 kpt#  38, nband= 16, wtk=  1.00000, kpt=  0.1667  0.1667  0.0000 (reduced coord)
 -61.46275  -36.70160  -36.67568  -36.57056  -15.41531  -14.83740   -7.26890   -6.23689
  -6.11142   -5.65412   -4.40270   -3.65663   -3.36147   -0.85100   -0.24914   -0.10394
 kpt#  39, nband= 16, wtk=  1.00000, kpt=  0.1500  0.1500  0.0000 (reduced coord)
 -61.48253  -36.68209  -36.68013  -36.56029  -15.58216  -14.91405   -7.26617   -6.20494
  -5.89976   -5.47190   -4.35422   -3.58781   -3.31859   -0.82045   -0.27782   -0.18390
 kpt#  40, nband= 16, wtk=  1.00000, kpt=  0.1333  0.1333  0.0000 (reduced coord)
 -61.48666  -36.68672  -36.65240  -36.54927  -15.74191  -14.98741   -7.32173   -6.10216
  -5.72475   -5.22837   -4.38200   -3.54202   -3.22602   -0.75222   -0.27446   -0.24352
 kpt#  41, nband= 16, wtk=  1.00000, kpt=  0.1167  0.1167  0.0000 (reduced coord)
 -61.50446  -36.69631  -36.62684  -36.53940  -15.89202  -15.05618   -7.41986   -5.94580
  -5.56012   -4.96213   -4.46184   -3.52082   -3.10954   -0.65818   -0.27619   -0.23258
 kpt#  42, nband= 16, wtk=  1.00000, kpt=  0.1000  0.1000  0.0000 (reduced coord)
 -61.50478  -36.70256  -36.59695  -36.52925  -16.02826  -15.11881   -7.53736   -5.75840
  -5.38936   -4.70334   -4.56460   -3.52442   -2.99616   -0.54125   -0.27656   -0.15639
 kpt#  43, nband= 16, wtk=  1.00000, kpt=  0.0833  0.0833  0.0000 (reduced coord)
 -61.50246  -36.70664  -36.56813  -36.52172  -16.14773  -15.17390   -7.65607   -5.56103
  -5.20885   -4.67067   -4.47060   -3.55396   -2.90298   -0.40027   -0.24129   -0.06313
 kpt#  44, nband= 16, wtk=  1.00000, kpt=  0.0667  0.0667  0.0000 (reduced coord)
 -61.52192  -36.71306  -36.55048  -36.51658  -16.24953  -15.22086   -7.76614   -5.37168
  -5.02088   -4.76869   -4.27519   -3.60923   -2.83628   -0.23679   -0.17696    0.07249
 kpt#  45, nband= 16, wtk=  1.00000, kpt=  0.0500  0.0500  0.0000 (reduced coord)
 -61.52967  -36.71717  -36.53219  -36.51305  -16.33006  -15.25812   -7.85768   -5.20496
  -4.85020   -4.83071   -4.12332   -3.68911   -2.79319   -0.09509   -0.06181    0.12345
 kpt#  46, nband= 16, wtk=  1.00000, kpt=  0.0333  0.0333  0.0000 (reduced coord)
 -61.52291  -36.71666  -36.51679  -36.50917  -16.38840  -15.28507   -7.92585   -5.07364
  -4.91087   -4.64941   -4.01647   -3.78687   -2.76795    0.01661    0.09489    0.17045
 kpt#  47, nband= 16, wtk=  1.00000, kpt=  0.0167  0.0167  0.0000 (reduced coord)
 -61.52383  -36.71735  -36.50920  -36.50685  -16.42389  -15.30142   -7.96813   -4.98981
  -4.94817   -4.49960   -3.95363   -3.88498   -2.75559    0.05820    0.13579    0.19728
 kpt#  48, nband= 16, wtk=  1.00000, kpt=  0.0000  0.0000  0.0000 (reduced coord)
 -61.51240  -36.71383  -36.50509  -36.50509  -16.43480  -15.30646   -7.98186   -4.96052
  -4.96052   -4.43395   -3.93277   -3.93277   -2.75186    0.07686    0.09112    0.23599
 Total charge density [el/Bohr^3]
      Maximum=    8.8491E-01  at reduced coord.    0.8333    0.9167    0.0000
 Next maximum=    8.8491E-01  at reduced coord.    0.0833    0.9167    0.0000
      Minimum=    7.7478E-08  at reduced coord.    0.3750    0.0000    0.5000
 Next minimum=    7.7478E-08  at reduced coord.    0.6250    0.0000    0.5000
   Integrated=    2.6000E+01

== END DATASET(S) ==============================================================
================================================================================
  
 -outvars: echo values of variables after computation  --------
            acell      6.0564706910E+00  6.0564706910E+00  3.8453782165E+01 Bohr
              amu      9.59400000E+01  3.20660000E+01
           diemac      1.20000000E+01
             ecut      1.70000000E+01 Hartree
           enunit1          0
           enunit2          1
           etotal1    -9.0058544620E+01
            fcart1     2.9639321430E-29  1.7112270206E-29 -0.0000000000E+00
                      -1.4819660715E-29 -8.5561351032E-30 -2.4280531097E-02
                      -1.4819660715E-29 -8.5561351032E-30  2.4280531097E-02
-          fftalg         112
           getden1          0
           getden2         -1
             iscf1          7
             iscf2         -2
           istwfk1       4    0    0    0    5    0    0    0    0    0
           istwfk2       2    0    0    0    0    0    0    0    0    0
                         0    0    0    0    0    0    0    3    0    0
                         0    0    0    0    0    0    0    0    0    0
                         0    0    0    0    0    0    0    0    0    0
                         0    0    0    0    0    0    0    2
           jdtset        1    2
              kpt1     0.00000000E+00  0.00000000E+00  5.00000000E-01
                       1.25000000E-01  0.00000000E+00  5.00000000E-01
                       2.50000000E-01  0.00000000E+00  5.00000000E-01
                       3.75000000E-01  0.00000000E+00  5.00000000E-01
                       5.00000000E-01  0.00000000E+00  5.00000000E-01
                       1.25000000E-01  1.25000000E-01  5.00000000E-01
                       2.50000000E-01  1.25000000E-01  5.00000000E-01
                       3.75000000E-01  1.25000000E-01  5.00000000E-01
                       2.50000000E-01  2.50000000E-01  5.00000000E-01
                       3.75000000E-01  2.50000000E-01  5.00000000E-01
              kpt2     0.00000000E+00  0.00000000E+00  0.00000000E+00
                       2.94117647E-02  0.00000000E+00  0.00000000E+00
                       5.88235294E-02  0.00000000E+00  0.00000000E+00
                       8.82352941E-02  0.00000000E+00  0.00000000E+00
                       1.17647059E-01  0.00000000E+00  0.00000000E+00
                       1.47058824E-01  0.00000000E+00  0.00000000E+00
                       1.76470588E-01  0.00000000E+00  0.00000000E+00
                       2.05882353E-01  0.00000000E+00  0.00000000E+00
                       2.35294118E-01  0.00000000E+00  0.00000000E+00
                       2.64705882E-01  0.00000000E+00  0.00000000E+00
                       2.94117647E-01  0.00000000E+00  0.00000000E+00
                       3.23529412E-01  0.00000000E+00  0.00000000E+00
                       3.52941176E-01  0.00000000E+00  0.00000000E+00
                       3.82352941E-01  0.00000000E+00  0.00000000E+00
                       4.11764706E-01  0.00000000E+00  0.00000000E+00
                       4.41176471E-01  0.00000000E+00  0.00000000E+00
                       4.70588235E-01  0.00000000E+00  0.00000000E+00
                       5.00000000E-01  0.00000000E+00  0.00000000E+00
                       4.83333333E-01  3.33333333E-02  0.00000000E+00
                       4.66666667E-01  6.66666667E-02  0.00000000E+00
                       4.50000000E-01  1.00000000E-01  0.00000000E+00
                       4.33333333E-01  1.33333333E-01  0.00000000E+00
                       4.16666667E-01  1.66666667E-01  0.00000000E+00
                       4.00000000E-01  2.00000000E-01  0.00000000E+00
                       3.83333333E-01  2.33333333E-01  0.00000000E+00
                       3.66666667E-01  2.66666667E-01  0.00000000E+00
                       3.50000000E-01  3.00000000E-01  0.00000000E+00
                       3.33333333E-01  3.33333333E-01  0.00000000E+00
                       3.16666667E-01  3.16666667E-01  0.00000000E+00
                       3.00000000E-01  3.00000000E-01  0.00000000E+00
                       2.83333333E-01  2.83333333E-01  0.00000000E+00
                       2.66666667E-01  2.66666667E-01  0.00000000E+00
                       2.50000000E-01  2.50000000E-01  0.00000000E+00
                       2.33333333E-01  2.33333333E-01  0.00000000E+00
                       2.16666667E-01  2.16666667E-01  0.00000000E+00
                       2.00000000E-01  2.00000000E-01  0.00000000E+00
                       1.83333333E-01  1.83333333E-01  0.00000000E+00
                       1.66666667E-01  1.66666667E-01  0.00000000E+00
                       1.50000000E-01  1.50000000E-01  0.00000000E+00
                       1.33333333E-01  1.33333333E-01  0.00000000E+00
                       1.16666667E-01  1.16666667E-01  0.00000000E+00
                       1.00000000E-01  1.00000000E-01  0.00000000E+00
                       8.33333333E-02  8.33333333E-02  0.00000000E+00
                       6.66666667E-02  6.66666667E-02  0.00000000E+00
                       5.00000000E-02  5.00000000E-02  0.00000000E+00
                       3.33333333E-02  3.33333333E-02  0.00000000E+00
                       1.66666667E-02  1.66666667E-02  0.00000000E+00
                       0.00000000E+00  0.00000000E+00  0.00000000E+00
           kptopt1          1
           kptopt2         -3
         kptrlatt        8    0    0      0    8    0      0    0    1
          kptrlen1     4.84517655E+01
          kptrlen2     3.00000000E+01
P           mkmem1         10
P           mkmem2         48
            natom           3
            nband1         14
            nband2         16
           nbdbuf1          0
           nbdbuf2          2
           ndtset           2
            ngfft          24      24     144
             nkpt1         10
             nkpt2         48
            nstep          10
             nsym          12
           ntypat           2
              occ      2.000000  2.000000  2.000000  2.000000  2.000000  2.000000
                       2.000000  2.000000  2.000000  2.000000  2.000000  2.000000
                       2.000000  0.000000
            rprim      1.0000000000E+00  0.0000000000E+00  0.0000000000E+00
                      -5.0000000000E-01  8.6602540378E-01  0.0000000000E+00
                       0.0000000000E+00  0.0000000000E+00  1.0000000000E+00
           shiftk1     0.00000000E+00  0.00000000E+00  5.00000000E-01
           shiftk2     5.00000000E-01  5.00000000E-01  5.00000000E-01
          spgroup         187
           strten1     5.5866435828E-04  5.5866435829E-04  5.7926086027E-04
                       0.0000000000E+00  0.0000000000E+00  0.0000000000E+00
           symrel      1  0  0   0  1  0   0  0  1       0 -1  0  -1  0  0   0  0 -1
                      -1 -1  0   1  0  0   0  0 -1      -1  0  0   1  1  0   0  0  1
                       0  1  0  -1 -1  0   0  0  1       1  1  0   0 -1  0   0  0 -1
                       1  0  0   0  1  0   0  0 -1       0 -1  0  -1  0  0   0  0  1
                      -1 -1  0   1  0  0   0  0  1      -1  0  0   1  1  0   0  0 -1
                       0  1  0  -1 -1  0   0  0 -1       1  1  0   0 -1  0   0  0  1
           toldfe1     1.00000000E-06 Hartree
           toldfe2     0.00000000E+00 Hartree
           tolwfr1     0.00000000E+00
           tolwfr2     1.00000000E-12
            typat      1  2  2
              wtk1       0.01563    0.09375    0.09375    0.09375    0.04688    0.09375
                         0.18750    0.18750    0.09375    0.09375
              wtk2       1.00000    1.00000    1.00000    1.00000    1.00000    1.00000
                         1.00000    1.00000    1.00000    1.00000    1.00000    1.00000
                         1.00000    1.00000    1.00000    1.00000    1.00000    1.00000
                         1.00000    1.00000    1.00000    1.00000    1.00000    1.00000
                         1.00000    1.00000    1.00000    1.00000    1.00000    1.00000
                         1.00000    1.00000    1.00000    1.00000    1.00000    1.00000
                         1.00000    1.00000    1.00000    1.00000    1.00000    1.00000
                         1.00000    1.00000    1.00000    1.00000    1.00000    1.00000
           xangst      1.6237379922E-27  0.0000000000E+00  1.6459063547E-19
                       1.6024731271E+00  9.2518829129E-01  1.6091498044E+00
                       1.6024731271E+00  9.2518829129E-01 -1.6091498044E+00
            xcart      3.0684201168E-27  0.0000000000E+00  3.1103122508E-19
                       3.0282353455E+00  1.7483524919E+00  3.0408524371E+00
                       3.0282353455E+00  1.7483524919E+00 -3.0408524371E+00
             xred      5.0663501458E-28  0.0000000000E+00  8.0884429974E-21
                       6.6666666667E-01  3.3333333333E-01  7.9078110549E-02
                       6.6666666667E-01  3.3333333333E-01 -7.9078110549E-02
            znucl       42.00000   16.00000

================================================================================
  

================================================================================

 Suggested references for the acknowledgment of ABINIT usage.

 The users of ABINIT have little formal obligations with respect to the ABINIT group
 (those specified in the GNU General Public License, http://www.gnu.org/copyleft/gpl.txt).
 However, it is common practice in the scientific literature,
 to acknowledge the efforts of people that have made the research possible.
 In this spirit, please find below suggested citations of work written by ABINIT developers,
 corresponding to implementations inside of ABINIT that you have used in the present run.
 Note also that it will be of great value to readers of publications presenting these results,
 to read papers enabling them to understand the theoretical formalism and details
 of the ABINIT implementation.
 For information on why they are suggested, see also http://www.abinit.org/about/?text=acknowledgments.
-
- [1] Recent developments in the ABINIT software package.
- Computer Phys. Comm. 205, 106 (2016).
- X.Gonze, F.Jollet, F.Abreu Araujo, D.Adams, B.Amadon, T.Applencourt,
- C.Audouze, J.-M.Beuken, J.Bieder, A.Bokhanchuk, E.Bousquet, F.Bruneval
- D.Caliste, M.Cote, F.Dahm, F.Da Pieve, M.Delaveau, M.Di Gennaro,
- B.Dorado, C.Espejo, G.Geneste, L.Genovese, A.Gerossier, M.Giantomassi,
- Y.Gillet, D.R.Hamann, L.He, G.Jomard, J.Laflamme Janssen, S.Le Roux,
- A.Levitt, A.Lherbier, F.Liu, I.Lukacevic, A.Martin, C.Martins,
- M.J.T.Oliveira, S.Ponce, Y.Pouillon, T.Rangel, G.-M.Rignanese,
- A.H.Romero, B.Rousseau, O.Rubel, A.A.Shukri, M.Stankovski, M.Torrent,
- M.J.Van Setten, B.Van Troeye, M.J.Verstraete, D.Waroquier, J.Wiktor,
- B.Xue, A.Zhou, J.W.Zwanziger.
- Comment : the fourth generic paper describing the ABINIT project.
- Note that a version of this paper, that is not formatted for Computer Phys. Comm. 
- is available at http://www.abinit.org/about/ABINIT16.pdf .
- The licence allows the authors to put it on the Web.
-
- [2] Optimized norm-conserving Vanderbilt pseudopotentials.
- D.R. Hamann, Phys. Rev. B 88, 085117 (2013).
- Comment: Some pseudopotential generated using the ONCVPSP code were used.
-
- [3] ABINIT : First-principles approach of materials and nanosystem properties.
- Computer Phys. Comm. 180, 2582-2615 (2009).
- X. Gonze, B. Amadon, P.-M. Anglade, J.-M. Beuken, F. Bottin, P. Boulanger, F. Bruneval,
- D. Caliste, R. Caracas, M. Cote, T. Deutsch, L. Genovese, Ph. Ghosez, M. Giantomassi
- S. Goedecker, D.R. Hamann, P. Hermet, F. Jollet, G. Jomard, S. Leroux, M. Mancini, S. Mazevet,
- M.J.T. Oliveira, G. Onida, Y. Pouillon, T. Rangel, G.-M. Rignanese, D. Sangalli, R. Shaltaf,
- M. Torrent, M.J. Verstraete, G. Zerah, J.W. Zwanziger
- Comment : the third generic paper describing the ABINIT project.
- Note that a version of this paper, that is not formatted for Computer Phys. Comm. 
- is available at http://www.abinit.org/about/ABINIT_CPC_v10.pdf .
- The licence allows the authors to put it on the Web.
-
- [4] A brief introduction to the ABINIT software package.
- Z. Kristallogr. 220, 558-562 (2005).
- X. Gonze, G.-M. Rignanese, M. Verstraete, J.-M. Beuken, Y. Pouillon, R. Caracas, F. Jollet,
- M. Torrent, G. Zerah, M. Mikami, Ph. Ghosez, M. Veithen, J.-Y. Raty, V. Olevano, F. Bruneval,
- L. Reining, R. Godby, G. Onida, D.R. Hamann, and D.C. Allan.
- Comment : the second generic paper describing the ABINIT project. Note that this paper
- should be cited especially if you are using the GW part of ABINIT, as several authors
- of this part are not in the list of authors of the first or third paper.
- The .pdf of the latter paper is available at http://www.abinit.org/about/zfk_0505-06_558-562.pdf.
- Note that it should not redistributed (Copyright by Oldenburg Wissenshaftverlag,
- the licence allows the authors to put it on the Web).
-
- And optionally:
-
- [5] First-principles computation of material properties : the ABINIT software project. 
- X. Gonze, J.-M. Beuken, R. Caracas, F. Detraux, M. Fuchs, G.-M. Rignanese, L. Sindic,
- M. Verstraete, G. Zerah, F. Jollet, M. Torrent, A. Roy, M. Mikami, Ph. Ghosez, J.-Y. Raty, D.C. Allan.
- Computational Materials Science 25, 478-492 (2002). http://dx.doi.org/10.1016/S0927-0256(02)00325-7
- Comment : the original paper describing the ABINIT project.
  Asked to delete not existent file: mos2_5_STATUS

 Calculation completed.
.Delivered  60 WARNINGs and   3 COMMENTs to log file.

--- !FinalSummary
program: abinit
version: 8.4.1
start_datetime: Wed Aug 09 12:24:57 2017
end_datetime: Wed Aug 09 12:27:29 2017
overall_cpu_time:         270.8
overall_wall_time:         151.9
exit_requested_by_user: no 
timelimit: 0
pseudos: 
    Mo  : 5312effbf764869b34f24d83a699e066
    S   : f579e1f6f789b7b4fedb596cdf2a0f24
usepaw: 0
mpi_procs: 1
omp_threads: 1
num_warnings: 60
num_comments: 3
...
