
.Version 8.4.1 of ABINIT 
.(sequential version, prepared for a x86_64_linux_gnu7.0 computer) 

.Copyright (C) 1998-2017 ABINIT group . 
 ABINIT comes with ABSOLUTELY NO WARRANTY.
 It is free software, and you are welcome to redistribute it
 under certain conditions (GNU General Public License,
 see ~abinit/COPYING or http://www.gnu.org/copyleft/gpl.txt).

 ABINIT is a project of the Universite Catholique de Louvain,
 Corning Inc. and other collaborators, see ~abinit/doc/developers/contributors.txt .
 Please read ~abinit/doc/users/acknowledgments.html for suggested
 acknowledgments of the ABINIT effort.
 For more information, see http://www.abinit.org .

.Starting date : Wed  9 Aug 2017.
- ( at 12h24 )
  
- input  file    -> mos2_5.in
- output file    -> mos2_5.out
- root for input  files -> mos2_5i
- root for output files -> mos2_5o


 DATASET    1 : space group P-6 m 2 (#187); Bravais hP (primitive hexag.)
================================================================================
 Values of the parameters that define the memory need for DATASET  1.
     intxc =       0    ionmov =       0      iscf =       7    lmnmax =       6
     lnmax =       6     mgfft =     144  mpssoang =       3    mqgrid =    7138
     natom =       3  nloc_mem =       1    nspden =       1   nspinor =       1
    nsppol =       1      nsym =      12    n1xccc =    2501    ntypat =       2
    occopt =       1   xclevel =       1
-    mband =          14        mffmem =           1         mkmem =          10
       mpw =        4122          nfft =       82944          nkpt =          10
================================================================================
P This job should need less than                      35.851 Mbytes of memory.
  Rough estimation (10% accuracy) of disk space for files :
_ WF disk file :      8.808 Mbytes ; DEN or POT disk file :      0.635 Mbytes.
================================================================================


 DATASET    2 : space group P-6 m 2 (#187); Bravais hP (primitive hexag.)
================================================================================
 Values of the parameters that define the memory need for DATASET  2.
     intxc =       0    ionmov =       0      iscf =      -2    lmnmax =       6
     lnmax =       6     mgfft =     144  mpssoang =       3    mqgrid =    7138
     natom =       3  nloc_mem =       1    nspden =       1   nspinor =       1
    nsppol =       1      nsym =      12    n1xccc =    2501    ntypat =       2
    occopt =       1   xclevel =       1
-    mband =          16        mffmem =           1         mkmem =          48
       mpw =        4133          nfft =       82944          nkpt =          48
================================================================================
P This job should need less than                      67.268 Mbytes of memory.
  Rough estimation (10% accuracy) of disk space for files :
_ WF disk file :     48.436 Mbytes ; DEN or POT disk file :      0.635 Mbytes.
================================================================================

--------------------------------------------------------------------------------
------------- Echo of variables that govern the present computation ------------
--------------------------------------------------------------------------------
-
- outvars: echo of selected default values                                      
-   iomode0 =  0 , fftalg0 =112 , wfoptalg0 =  0
-
- outvars: echo of global parameters not present in the input file              
-  max_nthreads =    0
-
 -outvars: echo values of preprocessed input variables --------
            acell      6.0564706910E+00  6.0564706910E+00  3.8453782165E+01 Bohr
              amu      9.59400000E+01  3.20660000E+01
           diemac      1.20000000E+01
             ecut      1.70000000E+01 Hartree
           enunit1          0
           enunit2          1
-          fftalg         112
           getden1          0
           getden2         -1
             iscf1          7
             iscf2         -2
           istwfk1       4    0    0    0    5    0    0    0    0    0
           istwfk2       2    0    0    0    0    0    0    0    0    0
                         0    0    0    0    0    0    0    3    0    0
                         0    0    0    0    0    0    0    0    0    0
                         0    0    0    0    0    0    0    0    0    0
                         0    0    0    0    0    0    0    2
           jdtset        1    2
              kpt1     0.00000000E+00  0.00000000E+00  5.00000000E-01
                       1.25000000E-01  0.00000000E+00  5.00000000E-01
                       2.50000000E-01  0.00000000E+00  5.00000000E-01
                       3.75000000E-01  0.00000000E+00  5.00000000E-01
                       5.00000000E-01  0.00000000E+00  5.00000000E-01
                       1.25000000E-01  1.25000000E-01  5.00000000E-01
                       2.50000000E-01  1.25000000E-01  5.00000000E-01
                       3.75000000E-01  1.25000000E-01  5.00000000E-01
                       2.50000000E-01  2.50000000E-01  5.00000000E-01
                       3.75000000E-01  2.50000000E-01  5.00000000E-01
              kpt2     0.00000000E+00  0.00000000E+00  0.00000000E+00
                       2.94117647E-02  0.00000000E+00  0.00000000E+00
                       5.88235294E-02  0.00000000E+00  0.00000000E+00
                       8.82352941E-02  0.00000000E+00  0.00000000E+00
                       1.17647059E-01  0.00000000E+00  0.00000000E+00
                       1.47058824E-01  0.00000000E+00  0.00000000E+00
                       1.76470588E-01  0.00000000E+00  0.00000000E+00
                       2.05882353E-01  0.00000000E+00  0.00000000E+00
                       2.35294118E-01  0.00000000E+00  0.00000000E+00
                       2.64705882E-01  0.00000000E+00  0.00000000E+00
                       2.94117647E-01  0.00000000E+00  0.00000000E+00
                       3.23529412E-01  0.00000000E+00  0.00000000E+00
                       3.52941176E-01  0.00000000E+00  0.00000000E+00
                       3.82352941E-01  0.00000000E+00  0.00000000E+00
                       4.11764706E-01  0.00000000E+00  0.00000000E+00
                       4.41176471E-01  0.00000000E+00  0.00000000E+00
                       4.70588235E-01  0.00000000E+00  0.00000000E+00
                       5.00000000E-01  0.00000000E+00  0.00000000E+00
                       4.83333333E-01  3.33333333E-02  0.00000000E+00
                       4.66666667E-01  6.66666667E-02  0.00000000E+00
                       4.50000000E-01  1.00000000E-01  0.00000000E+00
                       4.33333333E-01  1.33333333E-01  0.00000000E+00
                       4.16666667E-01  1.66666667E-01  0.00000000E+00
                       4.00000000E-01  2.00000000E-01  0.00000000E+00
                       3.83333333E-01  2.33333333E-01  0.00000000E+00
                       3.66666667E-01  2.66666667E-01  0.00000000E+00
                       3.50000000E-01  3.00000000E-01  0.00000000E+00
                       3.33333333E-01  3.33333333E-01  0.00000000E+00
                       3.16666667E-01  3.16666667E-01  0.00000000E+00
                       3.00000000E-01  3.00000000E-01  0.00000000E+00
                       2.83333333E-01  2.83333333E-01  0.00000000E+00
                       2.66666667E-01  2.66666667E-01  0.00000000E+00
                       2.50000000E-01  2.50000000E-01  0.00000000E+00
                       2.33333333E-01  2.33333333E-01  0.00000000E+00
                       2.16666667E-01  2.16666667E-01  0.00000000E+00
                       2.00000000E-01  2.00000000E-01  0.00000000E+00
                       1.83333333E-01  1.83333333E-01  0.00000000E+00
                       1.66666667E-01  1.66666667E-01  0.00000000E+00
                       1.50000000E-01  1.50000000E-01  0.00000000E+00
                       1.33333333E-01  1.33333333E-01  0.00000000E+00
                       1.16666667E-01  1.16666667E-01  0.00000000E+00
                       1.00000000E-01  1.00000000E-01  0.00000000E+00
                       8.33333333E-02  8.33333333E-02  0.00000000E+00
                       6.66666667E-02  6.66666667E-02  0.00000000E+00
                       5.00000000E-02  5.00000000E-02  0.00000000E+00
                       3.33333333E-02  3.33333333E-02  0.00000000E+00
                       1.66666667E-02  1.66666667E-02  0.00000000E+00
                       0.00000000E+00  0.00000000E+00  0.00000000E+00
           kptopt1          1
           kptopt2         -3
         kptrlatt        8    0    0      0    8    0      0    0    1
          kptrlen1     4.84517655E+01
          kptrlen2     3.00000000E+01
P           mkmem1         10
P           mkmem2         48
            natom           3
            nband1         14
            nband2         16
           nbdbuf1          0
           nbdbuf2          2
           ndtset           2
            ngfft          24      24     144
             nkpt1         10
             nkpt2         48
            nstep          10
             nsym          12
           ntypat           2
              occ      2.000000  2.000000  2.000000  2.000000  2.000000  2.000000
                       2.000000  2.000000  2.000000  2.000000  2.000000  2.000000
                       2.000000  0.000000
            rprim      1.0000000000E+00  0.0000000000E+00  0.0000000000E+00
                      -5.0000000000E-01  8.6602540378E-01  0.0000000000E+00
                       0.0000000000E+00  0.0000000000E+00  1.0000000000E+00
           shiftk1     0.00000000E+00  0.00000000E+00  5.00000000E-01
           shiftk2     5.00000000E-01  5.00000000E-01  5.00000000E-01
          spgroup         187
           symrel      1  0  0   0  1  0   0  0  1       0 -1  0  -1  0  0   0  0 -1
                      -1 -1  0   1  0  0   0  0 -1      -1  0  0   1  1  0   0  0  1
                       0  1  0  -1 -1  0   0  0  1       1  1  0   0 -1  0   0  0 -1
                       1  0  0   0  1  0   0  0 -1       0 -1  0  -1  0  0   0  0  1
                      -1 -1  0   1  0  0   0  0  1      -1  0  0   1  1  0   0  0 -1
                       0  1  0  -1 -1  0   0  0 -1       1  1  0   0 -1  0   0  0  1
           toldfe1     1.00000000E-06 Hartree
           toldfe2     0.00000000E+00 Hartree
           tolwfr1     0.00000000E+00
           tolwfr2     1.00000000E-12
            typat      1  2  2
              wtk1       0.01563    0.09375    0.09375    0.09375    0.04688    0.09375
                         0.18750    0.18750    0.09375    0.09375
              wtk2       1.00000    1.00000    1.00000    1.00000    1.00000    1.00000
                         1.00000    1.00000    1.00000    1.00000    1.00000    1.00000
                         1.00000    1.00000    1.00000    1.00000    1.00000    1.00000
                         1.00000    1.00000    1.00000    1.00000    1.00000    1.00000
                         1.00000    1.00000    1.00000    1.00000    1.00000    1.00000
                         1.00000    1.00000    1.00000    1.00000    1.00000    1.00000
                         1.00000    1.00000    1.00000    1.00000    1.00000    1.00000
                         1.00000    1.00000    1.00000    1.00000    1.00000    1.00000
           xangst      1.2178034942E-27  7.0309917517E-28  1.6459063547E-19
                       1.6024731271E+00  9.2518829128E-01  1.6091498044E+00
                       1.6024731271E+00  9.2518829128E-01 -1.6091498044E+00
            xcart      2.3013150876E-27  1.3286648853E-27  3.1103122508E-19
                       3.0282353455E+00  1.7483524919E+00  3.0408524371E+00
                       3.0282353455E+00  1.7483524919E+00 -3.0408524371E+00
             xred      5.0663501458E-28  2.5331750729E-28  8.0884429974E-21
                       6.6666666667E-01  3.3333333333E-01  7.9078110549E-02
                       6.6666666667E-01  3.3333333333E-01 -7.9078110549E-02
            znucl       42.00000   16.00000

================================================================================

 chkinp: Checking input parameters for consistency, jdtset=   1.

 chkinp: Checking input parameters for consistency, jdtset=   2.

================================================================================
== DATASET  1 ==================================================================
-   nproc =    1

 Exchange-correlation functional for the present dataset will be:
  LDA: new Teter (4/93) with spin-polarized option - ixc=1
 Citation for XC functional:
  S. Goedecker, M. Teter, J. Huetter, PRB 54, 1703 (1996)

 Real(R)+Recip(G) space primitive vectors, cartesian coordinates (Bohr,Bohr^-1):
 R(1)=  6.0564707  0.0000000  0.0000000  G(1)=  0.1651127  0.0953278  0.0000000
 R(2)= -3.0282353  5.2450575  0.0000000  G(2)=  0.0000000  0.1906557  0.0000000
 R(3)=  0.0000000  0.0000000 38.4537822  G(3)=  0.0000000  0.0000000  0.0260052
 Unit cell volume ucvol=  1.2215435E+03 bohr^3
 Angles (23,13,12)=  9.00000000E+01  9.00000000E+01  1.20000000E+02 degrees

 getcut: wavevector=  0.0000  0.0000  0.0000  ngfft=  24  24 144
         ecut(hartree)=     17.000   => boxcut(ratio)=   2.01759

--- Pseudopotential description ------------------------------------------------
- pspini: atom type   1  psp file is ./42mo.hghsc
- pspatm: opening atomic psp file    ./42mo.hghsc
- Hartwigsen-Goedecker-Hutter psp for Mo,  from PRB58, 3641 (1998)
- 42.00000  14.00000     10605                znucl, zion, pspdat
    3    1    2    0      2001   0.00000      pspcod,pspxc,lmax,lloc,mmax,r2well
 rloc=   0.4300000
 cc1 =  16.2374520; cc2 =   1.4965360; cc3 =   0.0000000; cc4 =   0.0000000
 rrs =   0.3762550; h11s=   3.3624260; h22s=  -5.2892760; h33s=   0.0000000
 rrp =   0.3617340; h11p=  -0.3795710; h22p=  -4.0677130; h33p=   0.0000000
                    k11p=   0.3786810; k22p=  -0.1245610; k33p=   0.0000000
 rrd =   0.5258280; h11d=  -1.5432110; h22d=   1.0743880; h33d=   0.0000000
                    k11d=   0.0144600; k22d=  -0.0147690; k33d=   0.0000000
-  Local part computed in reciprocal space.

 pspatm : COMMENT -
  the projectors are not normalized,
  so that the KB energies are not consistent with 
  definition in PRB44, 8503 (1991). 
  However, this does not influence the results obtained hereafter.
 pspatm: epsatm=   42.21916586
         --- l  ekb(1:nproj) -->
             0   -1.085688    0.721857
             1   -0.208345    0.013056
             2   -0.256316    0.182427
 pspatm: atomic psp has been read  and splines computed

- pspini: atom type   2  psp file is ./S.psp8
- pspatm: opening atomic psp file    ./S.psp8
- S     ONCVPSP  r_core=  1.45  1.45  1.62
- 16.00000   6.00000    151027                znucl, zion, pspdat
    8   11    2    4       600   0.00000      pspcod,pspxc,lmax,lloc,mmax,r2well
    5.99000000000000    6.00000000000000    0.00000000000000   rchrg,fchrg,qchrg
     nproj     2     2     2
extension_switch     1
 pspatm: epsatm=    9.01629391
         --- l  ekb(1:nproj) -->
             0    6.687458    0.573856
             1    3.355342    0.912754
             2   -8.510942   -1.367258
 pspatm: atomic psp has been read  and splines computed

   1.56654560E+03                                ecore*ucvol(ha*bohr**3)
--------------------------------------------------------------------------------

_setup2: Arith. and geom. avg. npw (full set) are    4087.500    4087.461

================================================================================

     iter   Etot(hartree)      deltaE(h)  residm     vres2
 ETOT  1  -88.338334744888    -8.834E+01 8.470E-02 2.925E+03
 ETOT  2  -87.892638684567     4.457E-01 6.323E-03 1.337E+04
 ETOT  3  -90.017536794391    -2.125E+00 1.924E-02 6.813E+01
 ETOT  4  -90.057189980332    -3.965E-02 3.925E-03 1.003E+01
 ETOT  5  -90.057431488085    -2.415E-04 5.332E-03 2.686E+01
 ETOT  6  -90.058184305390    -7.528E-04 2.590E-03 4.349E+00
 ETOT  7  -90.058384611820    -2.003E-04 4.875E-03 3.085E+00
 ETOT  8  -90.058398165610    -1.355E-05 2.116E-03 3.693E+00
 ETOT  9  -90.058393260034     4.906E-06 2.369E-03 8.424E-01
 ETOT 10  -90.058544619747    -1.514E-04 6.865E-04 5.793E-02

 Cartesian components of stress tensor (hartree/bohr^3)
  sigma(1 1)=  5.58664358E-04  sigma(3 2)=  0.00000000E+00
  sigma(2 2)=  5.58664358E-04  sigma(3 1)=  0.00000000E+00
  sigma(3 3)=  5.79260860E-04  sigma(2 1)=  0.00000000E+00


 scprqt:  WARNING -
  nstep=   10 was not enough SCF cycles to converge;
  maximum energy difference=  1.514E-04 exceeds toldfe=  1.000E-06

 Integrated electronic density in atomic spheres:
 ------------------------------------------------
 Atom  Sphere_radius  Integrated_density
    1        2.00000         10.49853245
    2        2.00000          3.82314751
    3        2.00000          3.82314751
================================================================================

 ----iterations are completed or convergence reached----

 Mean square residual over all n,k,spin=   9.4243E-06; max=  6.8648E-04
 reduced coordinates (array xred) for    3 atoms
       0.000000000000      0.000000000000      0.000000000000
       0.666666666667      0.333333333333      0.079078110549
       0.666666666667      0.333333333333     -0.079078110549
 rms dE/dt=  4.4014E-01; max dE/dt=  9.3368E-01; dE/dt below (all hartree)
    1       0.000000000000      0.000000000000      0.000000000000
    2       0.000000000000      0.000000000000      0.933678253668
    3       0.000000000000      0.000000000000     -0.933678253668

 cartesian coordinates (angstrom) at end:
    1      0.00000000000000     0.00000000000000     0.00000000000000
    2      1.60247312708526     0.92518829128708     1.60914980438335
    3      1.60247312708526     0.92518829128708    -1.60914980438335

 cartesian forces (hartree/bohr) at end:
    1      0.00000000000000     0.00000000000000    -0.00000000000000
    2     -0.00000000000000    -0.00000000000000    -0.02428053109735
    3     -0.00000000000000    -0.00000000000000     0.02428053109735
 frms,max,avg= 1.1445952E-02 2.4280531E-02   0.000E+00  0.000E+00  0.000E+00 h/b

 cartesian forces (eV/Angstrom) at end:
    1      0.00000000000000     0.00000000000000    -0.00000000000000
    2     -0.00000000000000    -0.00000000000000    -1.24855500442881
    3     -0.00000000000000    -0.00000000000000     1.24855500442881
 frms,max,avg= 5.8857447E-01 1.2485550E+00   0.000E+00  0.000E+00  0.000E+00 e/A
 length scales=  6.056470691000  6.056470691000 38.453782165000 bohr
              =  3.204946254171  3.204946254171 20.348865105803 angstroms
 prteigrs : about to open file mos2_5o_DS1_EIG
 Fermi (or HOMO) energy (hartree) =  -0.10163   Average Vxc (hartree)=  -0.14610
 Eigenvalues (hartree) for nkpt=  10  k points:
 kpt#   1, nband= 14, wtk=  0.01563, kpt=  0.0000  0.0000  0.5000 (reduced coord)
  -2.26502   -1.35316   -1.34519   -1.34519   -0.60448   -0.56278   -0.29444   -0.18419
  -0.18419   -0.16328   -0.14618   -0.14618   -0.10295    0.00260
 prteigrs : prtvol=0 or 1, do not print more k-points.


--------------------------------------------------------------------------------
 Components of total free energy (in Hartree) :

    Kinetic energy  =  2.95019013006870E+01
    Hartree energy  =  2.79696958908273E+02
    XC energy       = -1.40029457768394E+01
    Ewald energy    =  2.03720290751498E+02
    PspCore energy  =  1.28243129264760E+00
    Loc. psp. energy= -5.84749501705844E+02
    NL   psp  energy= -5.50767939016957E+00
    >>>>>>>>> Etotal= -9.00585446197474E+01

 Other information on the energy :
    Total energy(eV)= -2.45061762752088E+03 ; Band energy (Ha)=  -1.7596145374E+01
--------------------------------------------------------------------------------

 Cartesian components of stress tensor (hartree/bohr^3)
  sigma(1 1)=  5.58664358E-04  sigma(3 2)=  0.00000000E+00
  sigma(2 2)=  5.58664358E-04  sigma(3 1)=  0.00000000E+00
  sigma(3 3)=  5.79260860E-04  sigma(2 1)=  0.00000000E+00

-Cartesian components of stress tensor (GPa)         [Pressure= -1.6638E+01 GPa]
- sigma(1 1)=  1.64364701E+01  sigma(3 2)=  0.00000000E+00
- sigma(2 2)=  1.64364701E+01  sigma(3 1)=  0.00000000E+00
- sigma(3 3)=  1.70424400E+01  sigma(2 1)=  0.00000000E+00

================================================================================
== DATASET  2 ==================================================================
-   nproc =    1

 mkfilename : getden/=0, take file _DEN from output of DATASET   1.

 Exchange-correlation functional for the present dataset will be:
  LDA: new Teter (4/93) with spin-polarized option - ixc=1
 Citation for XC functional:
  S. Goedecker, M. Teter, J. Huetter, PRB 54, 1703 (1996)

 Real(R)+Recip(G) space primitive vectors, cartesian coordinates (Bohr,Bohr^-1):
 R(1)=  6.0564707  0.0000000  0.0000000  G(1)=  0.1651127  0.0953278  0.0000000
 R(2)= -3.0282353  5.2450575  0.0000000  G(2)=  0.0000000  0.1906557  0.0000000
 R(3)=  0.0000000  0.0000000 38.4537822  G(3)=  0.0000000  0.0000000  0.0260052
 Unit cell volume ucvol=  1.2215435E+03 bohr^3
 Angles (23,13,12)=  9.00000000E+01  9.00000000E+01  1.20000000E+02 degrees

 getcut: wavevector=  0.0000  0.0000  0.0000  ngfft=  24  24 144
         ecut(hartree)=     17.000   => boxcut(ratio)=   2.01759
--------------------------------------------------------------------------------


================================================================================
 prteigrs : about to open file mos2_5o_DS2_EIG
 Non-SCF case, kpt    1 (  0.00000  0.00000  0.00000), residuals and eigenvalues=
  6.70E-13  3.61E-13  8.07E-13  6.56E-13  9.69E-13  3.88E-13  5.03E-13  3.62E-13
  7.98E-13  8.43E-13  9.25E-13  6.32E-13  1.18E-10  4.77E-09  3.93E-05  4.64E-09
 -2.2605E+00 -1.3492E+00 -1.3415E+00 -1.3415E+00 -6.0397E-01 -5.6250E-01
 -2.9333E-01 -1.8230E-01 -1.8230E-01 -1.6294E-01 -1.4453E-01 -1.4453E-01
 -1.0113E-01  2.8247E-03  3.3487E-03  8.6723E-03
  prteigrs : nnsclo,ikpt=   10    1 max resid (incl. the buffer)=  3.92724E-05
 Non-SCF case, kpt    2 (  0.02941  0.00000  0.00000), residuals and eigenvalues=
  7.70E-13  2.79E-13  3.50E-13  6.06E-13  8.13E-13  8.67E-13  9.36E-13  7.47E-13
  7.28E-13  4.73E-13  3.35E-12  1.73E-12  4.36E-10  1.61E-05  4.30E-05  4.15E-07
 -2.2610E+00 -1.3494E+00 -1.3417E+00 -1.3416E+00 -6.0355E-01 -5.6231E-01
 -2.9281E-01 -1.8341E-01 -1.8182E-01 -1.6545E-01 -1.4532E-01 -1.4272E-01
 -1.0127E-01  2.4055E-03  4.7191E-03  7.1719E-03
  prteigrs : nnsclo,ikpt=   10    2 max resid (incl. the buffer)=  4.30142E-05
 Non-SCF case, kpt    3 (  0.05882  0.00000  0.00000), residuals and eigenvalues=
  8.50E-13  2.60E-13  3.31E-13  6.32E-13  7.32E-13  3.26E-13  7.09E-13  8.68E-13
  9.22E-13  3.54E-13  4.47E-12  3.89E-13  5.38E-10  5.21E-05  3.35E-06  1.36E-06
 -2.2609E+00 -1.3493E+00 -1.3420E+00 -1.3416E+00 -6.0220E-01 -5.6169E-01
 -2.9120E-01 -1.8661E-01 -1.8040E-01 -1.7113E-01 -1.4756E-01 -1.3916E-01
 -1.0175E-01  6.8804E-05  2.9839E-03  6.2671E-03
  prteigrs : nnsclo,ikpt=   10    3 max resid (incl. the buffer)=  5.20562E-05
 Non-SCF case, kpt    4 (  0.08824  0.00000  0.00000), residuals and eigenvalues=
  6.36E-13  3.09E-13  4.39E-13  2.38E-13  9.72E-13  9.96E-13  9.20E-13  6.93E-13
  2.95E-13  9.29E-13  3.14E-12  1.67E-12  7.15E-11  7.99E-06  5.06E-06  7.19E-06
 -2.2608E+00 -1.3492E+00 -1.3425E+00 -1.3418E+00 -5.9996E-01 -5.6065E-01
 -2.8858E-01 -1.9162E-01 -1.7809E-01 -1.7805E-01 -1.5105E-01 -1.3599E-01
 -1.0271E-01 -3.1562E-03 -2.9579E-03  4.5157E-03
  prteigrs : nnsclo,ikpt=   10    4 max resid (incl. the buffer)=  7.98736E-06
 Non-SCF case, kpt    5 (  0.11765  0.00000  0.00000), residuals and eigenvalues=
  7.17E-13  2.09E-13  7.31E-13  6.03E-13  4.90E-13  6.31E-13  9.02E-13  9.69E-13
  6.41E-13  8.26E-13  5.54E-13  7.06E-13  2.46E-11  3.22E-06  3.24E-06  2.96E-05
 -2.2610E+00 -1.3492E+00 -1.3433E+00 -1.3420E+00 -5.9691E-01 -5.5924E-01
 -2.8515E-01 -1.9799E-01 -1.8564E-01 -1.7487E-01 -1.5550E-01 -1.3419E-01
 -1.0442E-01 -9.3535E-03 -5.7460E-03  1.4973E-03
  prteigrs : nnsclo,ikpt=   10    5 max resid (incl. the buffer)=  2.96058E-05
 Non-SCF case, kpt    6 (  0.14706  0.00000  0.00000), residuals and eigenvalues=
  2.68E-13  4.59E-13  9.75E-13  8.18E-13  4.76E-13  3.68E-13  4.31E-13  6.84E-13
  5.73E-13  8.61E-13  1.63E-12  7.44E-13  4.17E-10  8.31E-06  2.12E-06  6.12E-05
 -2.2601E+00 -1.3489E+00 -1.3440E+00 -1.3421E+00 -5.9304E-01 -5.5746E-01
 -2.8104E-01 -2.0524E-01 -1.9349E-01 -1.7092E-01 -1.6060E-01 -1.3416E-01
 -1.0708E-01 -1.5190E-02 -6.7038E-03 -2.0062E-03
  prteigrs : nnsclo,ikpt=   10    6 max resid (incl. the buffer)=  6.11972E-05
 Non-SCF case, kpt    7 (  0.17647  0.00000  0.00000), residuals and eigenvalues=
  4.36E-13  4.91E-13  8.23E-13  7.15E-13  3.35E-13  7.44E-13  6.60E-13  9.09E-13
  5.32E-13  6.54E-13  7.54E-13  5.15E-13  3.86E-11  4.47E-07  3.98E-07  7.19E-06
 -2.2606E+00 -1.3488E+00 -1.3453E+00 -1.3424E+00 -5.8850E-01 -5.5537E-01
 -2.7676E-01 -2.1282E-01 -2.0159E-01 -1.6637E-01 -1.6605E-01 -1.3595E-01
 -1.1087E-01 -1.9741E-02 -5.7918E-03 -5.6600E-03
  prteigrs : nnsclo,ikpt=   10    7 max resid (incl. the buffer)=  7.18624E-06
 Non-SCF case, kpt    8 (  0.20588  0.00000  0.00000), residuals and eigenvalues=
  5.35E-13  9.11E-13  4.34E-13  3.42E-13  5.02E-13  6.22E-13  5.09E-13  8.61E-13
  5.47E-13  6.67E-13  9.02E-13  8.99E-13  1.61E-11  2.33E-07  1.48E-06  1.03E-06
 -2.2601E+00 -1.3485E+00 -1.3463E+00 -1.3426E+00 -5.8334E-01 -5.5301E-01
 -2.7284E-01 -2.2000E-01 -2.0982E-01 -1.7160E-01 -1.6134E-01 -1.3913E-01
 -1.1557E-01 -2.2475E-02 -9.0865E-03 -2.8954E-03
  prteigrs : nnsclo,ikpt=   10    8 max resid (incl. the buffer)=  1.47647E-06
 Non-SCF case, kpt    9 (  0.23529  0.00000  0.00000), residuals and eigenvalues=
  5.99E-13  9.38E-13  3.79E-13  1.32E-13  4.69E-13  4.78E-13  5.57E-13  6.25E-13
  4.96E-13  8.29E-13  3.52E-13  6.62E-13  4.54E-13  2.18E-08  3.57E-07  1.18E-06
 -2.2594E+00 -1.3482E+00 -1.3473E+00 -1.3428E+00 -5.7771E-01 -5.5045E-01
 -2.7022E-01 -2.2600E-01 -2.1814E-01 -1.7705E-01 -1.5601E-01 -1.4318E-01
 -1.2066E-01 -2.3356E-02 -1.2139E-02  1.5903E-03
  prteigrs : nnsclo,ikpt=   10    9 max resid (incl. the buffer)=  1.17503E-06
 Non-SCF case, kpt   10 (  0.26471  0.00000  0.00000), residuals and eigenvalues=
  3.19E-13  5.00E-13  8.44E-13  7.38E-13  2.99E-13  6.79E-13  4.81E-13  5.43E-13
  9.42E-13  5.78E-13  3.79E-13  6.13E-13  7.32E-13  2.77E-08  4.96E-07  2.30E-07
 -2.2588E+00 -1.3485E+00 -1.3480E+00 -1.3430E+00 -5.7173E-01 -5.4774E-01
 -2.6995E-01 -2.3002E-01 -2.2645E-01 -1.8224E-01 -1.5061E-01 -1.4756E-01
 -1.2536E-01 -2.2579E-02 -1.4651E-02  7.0855E-03
  prteigrs : nnsclo,ikpt=   10   10 max resid (incl. the buffer)=  4.96235E-07
 Non-SCF case, kpt   11 (  0.29412  0.00000  0.00000), residuals and eigenvalues=
  3.79E-13  9.59E-13  5.48E-13  3.38E-13  6.74E-13  7.71E-13  7.11E-13  8.86E-13
  5.99E-13  9.06E-13  8.25E-13  4.15E-12  6.80E-13  3.39E-07  2.46E-05  8.73E-06
 -2.2580E+00 -1.3493E+00 -1.3476E+00 -1.3433E+00 -5.6559E-01 -5.4498E-01
 -2.7243E-01 -2.3457E-01 -2.3193E-01 -1.8705E-01 -1.5179E-01 -1.4539E-01
 -1.2883E-01 -2.0470E-02 -1.6440E-02  1.3163E-02
  prteigrs : nnsclo,ikpt=   10   11 max resid (incl. the buffer)=  2.45755E-05
 Non-SCF case, kpt   12 (  0.32353  0.00000  0.00000), residuals and eigenvalues=
  3.26E-13  7.53E-13  3.51E-13  4.35E-13  7.49E-13  3.38E-13  3.19E-13  3.23E-13
  4.82E-13  6.96E-13  4.77E-13  7.38E-13  7.19E-13  6.08E-06  8.62E-06  3.81E-05
 -2.2582E+00 -1.3504E+00 -1.3476E+00 -1.3436E+00 -5.5951E-01 -5.4227E-01
 -2.7701E-01 -2.4231E-01 -2.3274E-01 -1.9139E-01 -1.5562E-01 -1.4053E-01
 -1.3039E-01 -1.7529E-02 -1.7449E-02  1.9275E-02
  prteigrs : nnsclo,ikpt=   10   12 max resid (incl. the buffer)=  3.80848E-05
 Non-SCF case, kpt   13 (  0.35294  0.00000  0.00000), residuals and eigenvalues=
  7.54E-13  5.67E-13  8.14E-13  2.99E-13  1.92E-13  6.95E-13  3.97E-13  5.53E-13
  3.93E-13  7.18E-13  3.56E-13  2.50E-12  3.54E-13  6.03E-06  1.56E-07  5.97E-05
 -2.2577E+00 -1.3513E+00 -1.3474E+00 -1.3439E+00 -5.5366E-01 -5.3970E-01
 -2.8249E-01 -2.4941E-01 -2.3344E-01 -1.9517E-01 -1.5888E-01 -1.3622E-01
 -1.2983E-01 -1.7886E-02 -1.3786E-02  2.5014E-02
  prteigrs : nnsclo,ikpt=   10   13 max resid (incl. the buffer)=  5.97097E-05
 Non-SCF case, kpt   14 (  0.38235  0.00000  0.00000), residuals and eigenvalues=
  5.05E-13  8.36E-13  7.35E-13  5.85E-13  5.23E-13  5.73E-13  6.10E-13  4.20E-13
  8.60E-13  6.73E-13  4.87E-13  3.16E-12  2.55E-12  2.52E-05  1.47E-07  6.91E-05
 -2.2575E+00 -1.3521E+00 -1.3473E+00 -1.3440E+00 -5.4834E-01 -5.3739E-01
 -2.8800E-01 -2.5566E-01 -2.3455E-01 -1.9834E-01 -1.6152E-01 -1.3263E-01
 -1.2749E-01 -1.7572E-02 -9.7935E-03  3.0035E-02
  prteigrs : nnsclo,ikpt=   10   14 max resid (incl. the buffer)=  6.91465E-05
 Non-SCF case, kpt   15 (  0.41176  0.00000  0.00000), residuals and eigenvalues=
  5.94E-13  4.87E-13  6.54E-13  2.72E-13  6.15E-13  4.27E-13  3.96E-13  9.84E-13
  6.43E-13  5.02E-13  6.69E-13  1.14E-12  1.60E-12  4.52E-06  3.49E-08  3.62E-07
 -2.2578E+00 -1.3530E+00 -1.3471E+00 -1.3442E+00 -5.4382E-01 -5.3544E-01
 -2.9294E-01 -2.6079E-01 -2.3595E-01 -2.0085E-01 -1.6352E-01 -1.2985E-01
 -1.2423E-01 -1.6968E-02 -5.8218E-03  3.3691E-02
  prteigrs : nnsclo,ikpt=   10   15 max resid (incl. the buffer)=  4.52329E-06
 Non-SCF case, kpt   16 (  0.44118  0.00000  0.00000), residuals and eigenvalues=
  5.71E-13  1.41E-13  3.76E-13  9.42E-13  5.84E-13  6.62E-13  3.54E-13  4.96E-13
  5.83E-13  9.55E-13  9.42E-13  4.12E-13  5.07E-13  1.37E-06  1.33E-07  3.79E-05
 -2.2574E+00 -1.3534E+00 -1.3470E+00 -1.3443E+00 -5.4033E-01 -5.3396E-01
 -2.9678E-01 -2.6461E-01 -2.3727E-01 -2.0266E-01 -1.6492E-01 -1.2787E-01
 -1.2095E-01 -1.6199E-02 -2.2961E-03  3.6845E-02
  prteigrs : nnsclo,ikpt=   10   16 max resid (incl. the buffer)=  3.79272E-05
 Non-SCF case, kpt   17 (  0.47059  0.00000  0.00000), residuals and eigenvalues=
  3.25E-13  7.36E-13  4.59E-13  6.90E-13  5.12E-13  6.23E-13  6.13E-13  5.68E-13
  6.71E-13  5.15E-13  9.62E-13  1.11E-12  3.04E-12  4.28E-06  1.06E-05  7.60E-06
 -2.2579E+00 -1.3540E+00 -1.3470E+00 -1.3444E+00 -5.3816E-01 -5.3304E-01
 -2.9927E-01 -2.6698E-01 -2.3822E-01 -2.0375E-01 -1.6575E-01 -1.2670E-01
 -1.1859E-01 -1.5613E-02  1.9581E-04  3.8152E-02
  prteigrs : nnsclo,ikpt=   10   17 max resid (incl. the buffer)=  1.06367E-05
 Non-SCF case, kpt   18 (  0.50000  0.00000  0.00000), residuals and eigenvalues=
  4.51E-13  4.29E-13  9.09E-13  4.45E-13  6.74E-13  4.60E-13  1.92E-13  4.57E-13
  7.47E-13  5.63E-13  6.42E-13  3.75E-13  1.81E-12  4.37E-06  4.57E-06  1.29E-05
 -2.2578E+00 -1.3541E+00 -1.3468E+00 -1.3445E+00 -5.3741E-01 -5.3273E-01
 -3.0011E-01 -2.6777E-01 -2.3856E-01 -2.0412E-01 -1.6602E-01 -1.2631E-01
 -1.1773E-01 -1.5410E-02  1.1287E-03  3.8769E-02
  prteigrs : nnsclo,ikpt=   10   18 max resid (incl. the buffer)=  1.28974E-05
 Non-SCF case, kpt   19 (  0.48333  0.03333  0.00000), residuals and eigenvalues=
  4.08E-13  7.17E-13  4.42E-13  4.64E-13  4.49E-13  3.36E-13  2.93E-13  7.33E-13
  9.00E-13  7.38E-13  6.04E-13  2.81E-12  1.62E-11  4.56E-05  2.94E-05  3.04E-05
 -2.2578E+00 -1.3541E+00 -1.3468E+00 -1.3446E+00 -5.3721E-01 -5.3260E-01
 -2.9953E-01 -2.6809E-01 -2.3834E-01 -2.0448E-01 -1.6585E-01 -1.3110E-01
 -1.1501E-01 -1.5190E-02  1.4592E-03  3.9710E-02
  prteigrs : nnsclo,ikpt=   10   19 max resid (incl. the buffer)=  4.56177E-05
 Non-SCF case, kpt   20 (  0.46667  0.06667  0.00000), residuals and eigenvalues=
  5.85E-13  2.11E-13  8.47E-13  4.80E-13  5.48E-13  7.57E-13  6.46E-13  3.71E-13
  9.21E-13  7.80E-13  5.34E-13  4.05E-12  2.81E-10  1.21E-04  1.02E-04  3.55E-05
 -2.2572E+00 -1.3539E+00 -1.3467E+00 -1.3447E+00 -5.3663E-01 -5.3223E-01
 -2.9777E-01 -2.6904E-01 -2.3768E-01 -2.0534E-01 -1.6547E-01 -1.4038E-01
 -1.1158E-01 -1.4853E-02  2.6508E-03  4.2756E-02
  prteigrs : nnsclo,ikpt=   10   20 max resid (incl. the buffer)=  1.20856E-04
 Non-SCF case, kpt   21 (  0.45000  0.10000  0.00000), residuals and eigenvalues=
  6.65E-13  3.11E-13  4.89E-13  6.76E-13  3.72E-13  3.30E-13  5.24E-13  7.48E-13
  3.15E-13  9.08E-13  7.66E-13  2.64E-13  4.76E-12  3.29E-06  1.67E-06  1.65E-04
 -2.2572E+00 -1.3537E+00 -1.3466E+00 -1.3451E+00 -5.3572E-01 -5.3163E-01
 -2.9492E-01 -2.7065E-01 -2.3669E-01 -2.0630E-01 -1.6519E-01 -1.5179E-01
 -1.0905E-01 -1.5342E-02  4.2040E-03  4.0912E-02
  prteigrs : nnsclo,ikpt=   10   21 max resid (incl. the buffer)=  1.64734E-04
 Non-SCF case, kpt   22 (  0.43333  0.13333  0.00000), residuals and eigenvalues=
  6.13E-13  7.11E-13  2.53E-13  7.24E-13  4.07E-13  9.23E-13  8.10E-13  8.70E-13
  8.48E-13  5.87E-13  9.87E-13  6.07E-13  1.44E-10  6.91E-07  1.87E-04  3.19E-05
 -2.2565E+00 -1.3533E+00 -1.3465E+00 -1.3455E+00 -5.3453E-01 -5.3087E-01
 -2.9099E-01 -2.7286E-01 -2.3544E-01 -2.0689E-01 -1.6532E-01 -1.6451E-01
 -1.0704E-01 -1.6551E-02  7.5361E-03  3.0642E-02
  prteigrs : nnsclo,ikpt=   10   22 max resid (incl. the buffer)=  1.86766E-04
 Non-SCF case, kpt   23 (  0.41667  0.16667  0.00000), residuals and eigenvalues=
  3.77E-13  7.85E-13  3.35E-13  9.79E-13  8.80E-13  2.86E-13  8.82E-13  9.30E-13
  6.17E-13  5.26E-13  6.77E-13  6.08E-13  1.49E-10  7.41E-06  2.45E-04  4.92E-04
 -2.2564E+00 -1.3529E+00 -1.3465E+00 -1.3461E+00 -5.3315E-01 -5.2999E-01
 -2.8613E-01 -2.7555E-01 -2.3410E-01 -2.0682E-01 -1.7787E-01 -1.6611E-01
 -1.0518E-01 -1.8814E-02  1.1425E-02  2.4298E-02
  prteigrs : nnsclo,ikpt=   10   23 max resid (incl. the buffer)=  4.92024E-04
 Non-SCF case, kpt   24 (  0.40000  0.20000  0.00000), residuals and eigenvalues=
  6.64E-13  2.31E-13  8.68E-13  4.32E-13  9.51E-13  3.83E-13  5.83E-13  8.38E-13
  7.67E-13  5.51E-13  8.84E-13  5.45E-13  3.17E-11  1.53E-07  6.81E-06  2.14E-06
 -2.2567E+00 -1.3524E+00 -1.3470E+00 -1.3466E+00 -5.3169E-01 -5.2908E-01
 -2.8043E-01 -2.7845E-01 -2.3290E-01 -2.0598E-01 -1.9119E-01 -1.6765E-01
 -1.0310E-01 -2.1946E-02  1.5113E-02  1.7162E-02
  prteigrs : nnsclo,ikpt=   10   24 max resid (incl. the buffer)=  6.81006E-06
 Non-SCF case, kpt   25 (  0.38333  0.23333  0.00000), residuals and eigenvalues=
  3.21E-13  2.54E-13  2.78E-13  9.50E-13  8.98E-13  9.20E-13  5.91E-13  3.13E-13
  8.77E-13  9.09E-13  5.19E-13  5.51E-13  3.06E-11  1.82E-06  5.06E-06  2.85E-05
 -2.2569E+00 -1.3519E+00 -1.3478E+00 -1.3466E+00 -5.3030E-01 -5.2821E-01
 -2.8125E-01 -2.7410E-01 -2.3221E-01 -2.0442E-01 -2.0361E-01 -1.6984E-01
 -1.0070E-01 -2.5548E-02  1.2386E-02  1.9338E-02
  prteigrs : nnsclo,ikpt=   10   25 max resid (incl. the buffer)=  2.84910E-05
 Non-SCF case, kpt   26 (  0.36667  0.26667  0.00000), residuals and eigenvalues=
  3.88E-13  7.13E-13  7.19E-13  6.14E-13  3.20E-13  5.38E-13  6.51E-13  7.01E-13
  5.51E-13  5.00E-13  6.30E-13  9.54E-13  4.65E-11  1.66E-07  1.27E-06  1.26E-05
 -2.2569E+00 -1.3514E+00 -1.3486E+00 -1.3464E+00 -5.2910E-01 -5.2748E-01
 -2.8361E-01 -2.6745E-01 -2.3296E-01 -2.1365E-01 -2.0244E-01 -1.7237E-01
 -9.8196E-02 -2.9012E-02  9.1352E-03  2.3062E-02
  prteigrs : nnsclo,ikpt=   10   26 max resid (incl. the buffer)=  1.25670E-05
 Non-SCF case, kpt   27 (  0.35000  0.30000  0.00000), residuals and eigenvalues=
  5.85E-13  2.72E-13  5.37E-13  7.63E-13  3.63E-13  7.28E-13  3.81E-13  6.44E-13
  3.94E-13  3.86E-13  9.07E-13  1.00E-12  8.89E-13  6.97E-09  3.41E-08  4.73E-07
 -2.2562E+00 -1.3510E+00 -1.3490E+00 -1.3462E+00 -5.2825E-01 -5.2698E-01
 -2.8521E-01 -2.6123E-01 -2.3633E-01 -2.1907E-01 -2.0061E-01 -1.7460E-01
 -9.6119E-02 -3.1641E-02  7.3739E-03  2.5685E-02
  prteigrs : nnsclo,ikpt=   10   27 max resid (incl. the buffer)=  4.72800E-07
 Non-SCF case, kpt   28 (  0.33333  0.33333  0.00000), residuals and eigenvalues=
  4.27E-13  3.07E-13  6.96E-13  6.75E-13  4.70E-13  8.39E-13  9.76E-13  3.56E-13
  7.02E-13  7.26E-13  9.06E-13  6.05E-13  2.00E-12  3.46E-09  2.70E-08  1.81E-06
 -2.2562E+00 -1.3508E+00 -1.3493E+00 -1.3462E+00 -5.2794E-01 -5.2679E-01
 -2.8579E-01 -2.5816E-01 -2.3910E-01 -2.2028E-01 -1.9980E-01 -1.7557E-01
 -9.5269E-02 -3.2665E-02  6.8558E-03  2.6682E-02
  prteigrs : nnsclo,ikpt=   10   28 max resid (incl. the buffer)=  1.81344E-06
 Non-SCF case, kpt   29 (  0.31667  0.31667  0.00000), residuals and eigenvalues=
  4.19E-13  3.83E-13  3.63E-13  8.33E-13  5.20E-13  6.09E-13  3.79E-13  6.61E-13
  4.84E-13  5.51E-13  6.61E-13  6.53E-13  8.84E-12  3.25E-08  3.30E-08  1.12E-06
 -2.2562E+00 -1.3509E+00 -1.3491E+00 -1.3462E+00 -5.2830E-01 -5.2700E-01
 -2.8515E-01 -2.6106E-01 -2.3596E-01 -2.1957E-01 -2.0072E-01 -1.7445E-01
 -9.6244E-02 -3.1585E-02  7.2572E-03  2.5561E-02
  prteigrs : nnsclo,ikpt=   10   29 max resid (incl. the buffer)=  1.11803E-06
 Non-SCF case, kpt   30 (  0.30000  0.30000  0.00000), residuals and eigenvalues=
  7.30E-13  5.93E-13  3.06E-13  3.20E-13  9.27E-13  2.39E-13  3.65E-13  7.95E-13
  9.21E-13  3.79E-13  7.62E-13  6.35E-13  8.52E-12  2.99E-08  1.39E-07  3.50E-06
 -2.2568E+00 -1.3513E+00 -1.3486E+00 -1.3465E+00 -5.2948E-01 -5.2763E-01
 -2.8316E-01 -2.6628E-01 -2.3002E-01 -2.1749E-01 -2.0311E-01 -1.7134E-01
 -9.9083E-02 -2.8698E-02  8.1828E-03  2.2177E-02
  prteigrs : nnsclo,ikpt=   10   30 max resid (incl. the buffer)=  3.49665E-06
 Non-SCF case, kpt   31 (  0.28333  0.28333  0.00000), residuals and eigenvalues=
  4.30E-13  2.55E-13  5.80E-13  3.53E-13  5.72E-13  8.57E-13  4.98E-13  4.37E-13
  6.25E-13  5.42E-13  6.60E-13  7.14E-13  4.96E-12  4.86E-08  9.34E-07  4.12E-06
 -2.2574E+00 -1.3517E+00 -1.3481E+00 -1.3465E+00 -5.3158E-01 -5.2871E-01
 -2.7974E-01 -2.7090E-01 -2.2530E-01 -2.1301E-01 -2.0615E-01 -1.6694E-01
 -1.0320E-01 -2.4897E-02  9.1968E-03  1.6836E-02
  prteigrs : nnsclo,ikpt=   10   31 max resid (incl. the buffer)=  4.12415E-06
 Non-SCF case, kpt   32 (  0.26667  0.26667  0.00000), residuals and eigenvalues=
  3.64E-13  5.14E-13  3.35E-13  9.23E-13  4.27E-13  3.38E-13  5.57E-13  7.63E-13
  5.07E-13  5.60E-13  7.53E-13  7.29E-13  7.77E-11  9.55E-07  1.02E-06  6.81E-05
 -2.2577E+00 -1.3518E+00 -1.3475E+00 -1.3467E+00 -5.3459E-01 -5.3023E-01
 -2.7490E-01 -2.7403E-01 -2.2312E-01 -2.0916E-01 -2.0585E-01 -1.6190E-01
 -1.0782E-01 -2.1547E-02  9.7847E-03  1.0607E-02
  prteigrs : nnsclo,ikpt=   10   32 max resid (incl. the buffer)=  6.81101E-05
 Non-SCF case, kpt   33 (  0.25000  0.25000  0.00000), residuals and eigenvalues=
  5.39E-13  2.41E-13  5.90E-13  9.55E-13  8.78E-13  5.69E-13  8.80E-13  3.23E-13
  4.93E-13  4.56E-13  5.64E-13  6.04E-13  5.02E-12  1.97E-07  1.23E-05  3.69E-08
 -2.2575E+00 -1.3516E+00 -1.3468E+00 -1.3468E+00 -5.3848E-01 -5.3213E-01
 -2.7551E-01 -2.6868E-01 -2.2252E-01 -2.1168E-01 -1.9750E-01 -1.5659E-01
 -1.1230E-01 -1.9931E-02  4.3499E-03  9.5679E-03
  prteigrs : nnsclo,ikpt=   10   33 max resid (incl. the buffer)=  1.22839E-05
 Non-SCF case, kpt   34 (  0.23333  0.23333  0.00000), residuals and eigenvalues=
  5.69E-13  2.57E-13  8.46E-13  7.35E-13  6.57E-13  7.91E-13  6.72E-13  6.16E-13
  5.51E-13  7.44E-13  4.34E-13  4.42E-13  1.20E-11  1.22E-07  2.89E-05  2.16E-06
 -2.2568E+00 -1.3512E+00 -1.3469E+00 -1.3460E+00 -5.4314E-01 -5.3437E-01
 -2.7541E-01 -2.6122E-01 -2.2296E-01 -2.1341E-01 -1.8893E-01 -1.5131E-01
 -1.1620E-01 -2.1051E-02 -2.5344E-04  8.3190E-03
  prteigrs : nnsclo,ikpt=   10   34 max resid (incl. the buffer)=  2.88526E-05
 Non-SCF case, kpt   35 (  0.21667  0.21667  0.00000), residuals and eigenvalues=
  7.75E-13  3.53E-13  6.12E-13  4.54E-13  8.24E-13  1.66E-13  2.47E-13  4.79E-13
  3.87E-13  4.08E-13  9.53E-13  7.56E-13  1.86E-12  1.11E-08  2.27E-06  4.63E-07
 -2.2573E+00 -1.3507E+00 -1.3471E+00 -1.3455E+00 -5.4846E-01 -5.3690E-01
 -2.7399E-01 -2.5271E-01 -2.2431E-01 -2.1415E-01 -1.8063E-01 -1.4629E-01
 -1.1935E-01 -2.4426E-02 -3.1949E-03  6.0167E-03
  prteigrs : nnsclo,ikpt=   10   35 max resid (incl. the buffer)=  2.27158E-06
 Non-SCF case, kpt   36 (  0.20000  0.20000  0.00000), residuals and eigenvalues=
  3.97E-13  9.51E-13  2.11E-13  2.57E-13  5.25E-13  5.97E-13  5.22E-13  9.71E-13
  8.46E-13  3.02E-13  8.51E-13  6.39E-13  2.90E-11  2.13E-07  4.09E-05  4.62E-07
 -2.2583E+00 -1.3504E+00 -1.3473E+00 -1.3451E+00 -5.5426E-01 -5.3960E-01
 -2.7165E-01 -2.4341E-01 -2.2629E-01 -2.1372E-01 -1.7296E-01 -1.4170E-01
 -1.2174E-01 -2.8147E-02 -5.3043E-03  2.9557E-03
  prteigrs : nnsclo,ikpt=   10   36 max resid (incl. the buffer)=  4.09146E-05
 Non-SCF case, kpt   37 (  0.18333  0.18333  0.00000), residuals and eigenvalues=
  5.64E-13  2.48E-13  6.56E-13  6.54E-13  2.26E-13  9.42E-13  3.64E-13  4.02E-13
  5.50E-13  2.96E-13  7.50E-13  3.38E-13  7.01E-13  5.95E-09  7.60E-07  8.67E-07
 -2.2580E+00 -1.3494E+00 -1.3475E+00 -1.3444E+00 -5.6032E-01 -5.4242E-01
 -2.6902E-01 -2.3378E-01 -2.2822E-01 -2.1177E-01 -1.6638E-01 -1.3769E-01
 -1.2326E-01 -3.0619E-02 -7.3870E-03 -4.5717E-04
  prteigrs : nnsclo,ikpt=   10   37 max resid (incl. the buffer)=  8.66630E-07
 Non-SCF case, kpt   38 (  0.16667  0.16667  0.00000), residuals and eigenvalues=
  8.26E-13  6.73E-13  2.00E-13  3.33E-13  8.62E-13  2.49E-13  7.20E-13  2.32E-13
  5.13E-13  8.09E-13  7.11E-13  3.12E-13  2.29E-12  2.76E-08  9.29E-07  4.96E-07
 -2.2587E+00 -1.3488E+00 -1.3478E+00 -1.3439E+00 -5.6650E-01 -5.4526E-01
 -2.6713E-01 -2.2920E-01 -2.2459E-01 -2.0778E-01 -1.6180E-01 -1.3438E-01
 -1.2353E-01 -3.1274E-02 -9.1557E-03 -3.8199E-03
  prteigrs : nnsclo,ikpt=   10   38 max resid (incl. the buffer)=  9.28906E-07
 Non-SCF case, kpt   39 (  0.15000  0.15000  0.00000), residuals and eigenvalues=
  5.08E-13  7.64E-13  2.33E-13  7.88E-13  6.34E-13  2.94E-13  4.82E-13  8.98E-13
  2.21E-13  4.49E-13  9.02E-13  5.38E-13  8.36E-12  5.49E-08  4.32E-06  1.15E-06
 -2.2594E+00 -1.3480E+00 -1.3480E+00 -1.3436E+00 -5.7263E-01 -5.4808E-01
 -2.6703E-01 -2.2803E-01 -2.1681E-01 -2.0109E-01 -1.6001E-01 -1.3185E-01
 -1.2196E-01 -3.0151E-02 -1.0210E-02 -6.7583E-03
  prteigrs : nnsclo,ikpt=   10   39 max resid (incl. the buffer)=  4.31881E-06
 Non-SCF case, kpt   40 (  0.13333  0.13333  0.00000), residuals and eigenvalues=
  5.28E-13  4.19E-13  6.42E-13  6.80E-13  7.63E-13  7.68E-13  6.35E-13  4.51E-13
  7.63E-13  5.51E-13  9.69E-13  9.40E-13  1.31E-11  7.49E-10  4.19E-07  9.02E-07
 -2.2596E+00 -1.3482E+00 -1.3470E+00 -1.3432E+00 -5.7850E-01 -5.5078E-01
 -2.6907E-01 -2.2425E-01 -2.1038E-01 -1.9214E-01 -1.6104E-01 -1.3017E-01
 -1.1855E-01 -2.7644E-02 -1.0086E-02 -8.9491E-03
  prteigrs : nnsclo,ikpt=   10   40 max resid (incl. the buffer)=  9.02333E-07
 Non-SCF case, kpt   41 (  0.11667  0.11667  0.00000), residuals and eigenvalues=
  5.20E-13  3.99E-13  4.36E-13  4.25E-13  9.04E-13  4.68E-13  3.94E-13  4.15E-13
  6.28E-13  4.09E-13  9.17E-13  4.89E-13  6.61E-11  3.01E-08  4.60E-06  3.27E-06
 -2.2602E+00 -1.3486E+00 -1.3460E+00 -1.3428E+00 -5.8402E-01 -5.5330E-01
 -2.7267E-01 -2.1850E-01 -2.0433E-01 -1.8235E-01 -1.6397E-01 -1.2939E-01
 -1.1427E-01 -2.4188E-02 -1.0150E-02 -8.5473E-03
  prteigrs : nnsclo,ikpt=   10   41 max resid (incl. the buffer)=  4.60267E-06
 Non-SCF case, kpt   42 (  0.10000  0.10000  0.00000), residuals and eigenvalues=
  6.68E-13  9.68E-13  5.75E-13  1.19E-13  5.35E-13  6.66E-13  4.60E-13  8.54E-13
  8.15E-13  3.83E-13  4.62E-13  7.10E-13  3.52E-12  3.05E-07  8.37E-07  1.67E-05
 -2.2603E+00 -1.3488E+00 -1.3449E+00 -1.3424E+00 -5.8903E-01 -5.5561E-01
 -2.7699E-01 -2.1162E-01 -1.9806E-01 -1.7284E-01 -1.6775E-01 -1.2952E-01
 -1.1011E-01 -1.9890E-02 -1.0163E-02 -5.7472E-03
  prteigrs : nnsclo,ikpt=   10   42 max resid (incl. the buffer)=  1.67064E-05
 Non-SCF case, kpt   43 (  0.08333  0.08333  0.00000), residuals and eigenvalues=
  6.96E-13  7.50E-13  8.55E-13  6.67E-13  8.17E-13  5.25E-13  6.17E-13  6.76E-13
  8.35E-13  7.37E-13  6.36E-13  7.69E-13  1.64E-11  1.37E-06  2.68E-05  9.61E-07
 -2.2602E+00 -1.3489E+00 -1.3439E+00 -1.3421E+00 -5.9342E-01 -5.5763E-01
 -2.8136E-01 -2.0436E-01 -1.9142E-01 -1.7164E-01 -1.6429E-01 -1.3061E-01
 -1.0668E-01 -1.4710E-02 -8.8673E-03 -2.3201E-03
  prteigrs : nnsclo,ikpt=   10   43 max resid (incl. the buffer)=  2.68194E-05
 Non-SCF case, kpt   44 (  0.06667  0.06667  0.00000), residuals and eigenvalues=
  8.38E-13  9.54E-13  7.12E-13  2.50E-13  4.60E-13  5.64E-13  9.79E-13  3.40E-13
  6.71E-13  9.66E-13  7.50E-13  9.62E-13  7.22E-11  7.55E-06  1.03E-05  1.68E-04
 -2.2609E+00 -1.3492E+00 -1.3432E+00 -1.3420E+00 -5.9716E-01 -5.5936E-01
 -2.8540E-01 -1.9741E-01 -1.8451E-01 -1.7525E-01 -1.5711E-01 -1.3264E-01
 -1.0423E-01 -8.7017E-03 -6.5031E-03  2.6638E-03
  prteigrs : nnsclo,ikpt=   10   44 max resid (incl. the buffer)=  1.68012E-04
 Non-SCF case, kpt   45 (  0.05000  0.05000  0.00000), residuals and eigenvalues=
  4.94E-13  4.40E-13  3.81E-13  4.56E-13  7.49E-13  5.82E-13  8.87E-13  6.00E-13
  7.38E-13  7.10E-13  2.88E-12  4.75E-12  7.10E-11  1.60E-06  2.15E-05  1.06E-05
 -2.2612E+00 -1.3493E+00 -1.3425E+00 -1.3418E+00 -6.0012E-01 -5.6073E-01
 -2.8876E-01 -1.9128E-01 -1.7824E-01 -1.7753E-01 -1.5153E-01 -1.3557E-01
 -1.0265E-01 -3.4947E-03 -2.2715E-03  4.5367E-03
  prteigrs : nnsclo,ikpt=   10   45 max resid (incl. the buffer)=  2.14563E-05
 Non-SCF case, kpt   46 (  0.03333  0.03333  0.00000), residuals and eigenvalues=
  8.82E-13  2.49E-13  2.71E-13  7.91E-13  9.16E-13  3.09E-13  9.83E-13  8.41E-13
  3.12E-13  7.22E-13  1.92E-12  1.95E-12  8.56E-10  4.34E-05  9.17E-06  1.14E-06
 -2.2609E+00 -1.3493E+00 -1.3420E+00 -1.3417E+00 -6.0226E-01 -5.6172E-01
 -2.9127E-01 -1.8645E-01 -1.8047E-01 -1.7086E-01 -1.4760E-01 -1.3916E-01
 -1.0172E-01  6.1035E-04  3.4873E-03  6.2638E-03
  prteigrs : nnsclo,ikpt=   10   46 max resid (incl. the buffer)=  4.33624E-05
 Non-SCF case, kpt   47 (  0.01667  0.01667  0.00000), residuals and eigenvalues=
  7.98E-13  3.09E-13  2.79E-13  2.20E-13  7.97E-13  6.95E-13  9.10E-13  2.81E-13
  8.14E-13  3.62E-13  4.76E-12  3.51E-12  5.79E-10  6.47E-06  5.24E-05  7.89E-07
 -2.2610E+00 -1.3493E+00 -1.3417E+00 -1.3416E+00 -6.0357E-01 -5.6232E-01
 -2.9282E-01 -1.8337E-01 -1.8184E-01 -1.6536E-01 -1.4529E-01 -1.4277E-01
 -1.0127E-01  2.1389E-03  4.9901E-03  7.2498E-03
  prteigrs : nnsclo,ikpt=   10   47 max resid (incl. the buffer)=  5.23994E-05
 Non-SCF case, kpt   48 (  0.00000  0.00000  0.00000), residuals and eigenvalues=
  6.70E-13  3.61E-13  8.07E-13  6.56E-13  9.69E-13  3.88E-13  5.03E-13  3.62E-13
  7.98E-13  8.43E-13  9.25E-13  6.32E-13  1.18E-10  4.77E-09  3.93E-05  4.64E-09
 -2.2605E+00 -1.3492E+00 -1.3415E+00 -1.3415E+00 -6.0397E-01 -5.6250E-01
 -2.9333E-01 -1.8230E-01 -1.8230E-01 -1.6294E-01 -1.4453E-01 -1.4453E-01
 -1.0113E-01  2.8247E-03  3.3487E-03  8.6723E-03
  prteigrs : nnsclo,ikpt=   10   48 max resid (incl. the buffer)=  3.92724E-05


 scprqt:  WARNING -
  nstep=   10 was not enough non-SCF iterations to converge;
  maximum residual=  1.209E-04 exceeds tolwfr=  1.000E-12

 Integrated electronic density in atomic spheres:
 ------------------------------------------------
 Atom  Sphere_radius  Integrated_density
    1        2.00000         10.49853245
    2        2.00000          3.82314751
    3        2.00000          3.82314751
================================================================================

 ----iterations are completed or convergence reached----

 Mean square residual over all n,k,spin=   3.6394E-06; max=  4.9202E-04
 reduced coordinates (array xred) for    3 atoms
       0.000000000000      0.000000000000      0.000000000000
       0.666666666667      0.333333333333      0.079078110549
       0.666666666667      0.333333333333     -0.079078110549

 cartesian coordinates (angstrom) at end:
    1      0.00000000000000     0.00000000000000     0.00000000000000
    2      1.60247312708526     0.92518829128708     1.60914980438335
    3      1.60247312708526     0.92518829128708    -1.60914980438335
 length scales=  6.056470691000  6.056470691000 38.453782165000 bohr
              =  3.204946254171  3.204946254171 20.348865105803 angstroms
 prteigrs : about to open file mos2_5o_DS2_EIG
 Eigenvalues (   eV  ) for nkpt=  48  k points:
 kpt#   1, nband= 16, wtk=  1.00000, kpt=  0.0000  0.0000  0.0000 (reduced coord)
 -61.51240  -36.71383  -36.50509  -36.50509  -16.43480  -15.30646   -7.98186   -4.96052
  -4.96052   -4.43395   -3.93277   -3.93277   -2.75186    0.07686    0.09112    0.23599
 kpt#   2, nband= 16, wtk=  1.00000, kpt=  0.0294  0.0000  0.0000 (reduced coord)
 -61.52374  -36.71816  -36.50958  -36.50567  -16.42337  -15.30115   -7.96765   -4.99074
  -4.94770   -4.50202   -3.95427   -3.88365   -2.75568    0.06546    0.12841    0.19516
 kpt#   3, nband= 16, wtk=  1.00000, kpt=  0.0588  0.0000  0.0000 (reduced coord)
 -61.52274  -36.71747  -36.51772  -36.50782  -16.38657  -15.28423   -7.92391   -5.07780
  -4.90884   -4.65676   -4.01527   -3.78671   -2.76868    0.00187    0.08120    0.17054
 kpt#   4, nband= 16, wtk=  1.00000, kpt=  0.0882  0.0000  0.0000 (reduced coord)
 -61.51840  -36.71446  -36.53160  -36.51132  -16.32572  -15.25617   -7.85276   -5.21419
  -4.84616   -4.84500   -4.11029   -3.70051   -2.79494   -0.08588   -0.08049    0.12288
 kpt#   5, nband= 16, wtk=  1.00000, kpt=  0.1176  0.0000  0.0000 (reduced coord)
 -61.52401  -36.71352  -36.55293  -36.51675  -16.24268  -15.21782   -7.75928   -5.38771
  -5.05149   -4.75858   -4.23147   -3.65145   -2.84146   -0.25452   -0.15636    0.04074
 kpt#   6, nband= 16, wtk=  1.00000, kpt=  0.1471  0.0000  0.0000 (reduced coord)
 -61.50095  -36.70587  -36.57330  -36.51920  -16.13732  -15.16922   -7.64747   -5.58486
  -5.26526   -4.65106   -4.37005   -3.65071   -2.91372   -0.41334   -0.18242   -0.05459
 kpt#   7, nband= 16, wtk=  1.00000, kpt=  0.1765  0.0000  0.0000 (reduced coord)
 -61.51432  -36.70238  -36.60671  -36.52854  -16.01393  -15.11242   -7.53097   -5.79120
  -5.48542   -4.52719   -4.51834   -3.69935   -3.01684   -0.53717   -0.15760   -0.15402
 kpt#   8, nband= 16, wtk=  1.00000, kpt=  0.2059  0.0000  0.0000 (reduced coord)
 -61.50109  -36.69487  -36.63464  -36.53532  -15.87362  -15.04818   -7.42440   -5.98651
  -5.70957   -4.66954   -4.39034   -3.78589   -3.14470   -0.61157   -0.24726   -0.07879
 kpt#   9, nband= 16, wtk=  1.00000, kpt=  0.2353  0.0000  0.0000 (reduced coord)
 -61.48092  -36.68635  -36.66277  -36.54074  -15.72036  -14.97846   -7.35317   -6.14971
  -5.93593   -4.81783   -4.24530   -3.89622   -3.28338   -0.63555   -0.33031    0.04328
 kpt#  10, nband= 16, wtk=  1.00000, kpt=  0.2647  0.0000  0.0000 (reduced coord)
 -61.46494  -36.69335  -36.67971  -36.54478  -15.55757  -14.90474   -7.34576   -6.25929
  -6.16211   -4.95907   -4.09829   -4.01518   -3.41119   -0.61441   -0.39867    0.19281
 kpt#  11, nband= 16, wtk=  1.00000, kpt=  0.2941  0.0000  0.0000 (reduced coord)
 -61.44443  -36.71710  -36.67135  -36.55426  -15.39058  -14.82958   -7.41323   -6.38308
  -6.31113   -5.09000   -4.13040   -3.95617   -3.50553   -0.55701   -0.44734    0.35817
 kpt#  12, nband= 16, wtk=  1.00000, kpt=  0.3235  0.0000  0.0000 (reduced coord)
 -61.44906  -36.74761  -36.66917  -36.56220  -15.22497  -14.75600   -7.53777   -6.59367
  -6.33320   -5.20805   -4.23475   -3.82389   -3.54798   -0.47698   -0.47482    0.52451
 kpt#  13, nband= 16, wtk=  1.00000, kpt=  0.3529  0.0000  0.0000 (reduced coord)
 -61.43406  -36.76991  -36.66351  -36.56820  -15.06591  -14.68609   -7.68687   -6.78682
  -6.35230   -5.31083   -4.32332   -3.70677   -3.53273   -0.48670   -0.37513    0.68066
 kpt#  14, nband= 16, wtk=  1.00000, kpt=  0.3824  0.0000  0.0000 (reduced coord)
 -61.43014  -36.79379  -36.66127  -36.57123  -14.92121  -14.62305   -7.83693   -6.95680
  -6.38251   -5.39706   -4.39507   -3.60915   -3.46915   -0.47816   -0.26649    0.81729
 kpt#  15, nband= 16, wtk=  1.00000, kpt=  0.4118  0.0000  0.0000 (reduced coord)
 -61.43724  -36.81736  -36.65708  -36.57758  -14.79805  -14.57007   -7.97123   -7.09639
  -6.42041   -5.46535   -4.44973   -3.53344   -3.38039   -0.46171   -0.15842    0.91677
 kpt#  16, nband= 16, wtk=  1.00000, kpt=  0.4412  0.0000  0.0000 (reduced coord)
 -61.42806  -36.82914  -36.65422  -36.57987  -14.70318  -14.52978   -8.07580   -7.20036
  -6.45637   -5.51472   -4.48778   -3.47957   -3.29127   -0.44081   -0.06248    1.00259
 kpt#  17, nband= 16, wtk=  1.00000, kpt=  0.4706  0.0000  0.0000 (reduced coord)
 -61.43958  -36.84462  -36.65241  -36.58231  -14.64409  -14.50483   -8.14368   -7.26484
  -6.48227   -5.54438   -4.51017   -3.44763   -3.22713   -0.42485    0.00533    1.03816
 kpt#  18, nband= 16, wtk=  1.00000, kpt=  0.5000  0.0000  0.0000 (reduced coord)
 -61.43704  -36.84716  -36.64777  -36.58628  -14.62357  -14.49623   -8.16628   -7.28642
  -6.49154   -5.55441   -4.51753   -3.43719   -3.20368   -0.41934    0.03071    1.05495
 kpt#  19, nband= 16, wtk=  1.00000, kpt=  0.4833  0.0333  0.0000 (reduced coord)
 -61.43895  -36.84585  -36.64838  -36.58929  -14.61828  -14.49279   -8.15062   -7.29509
  -6.48551   -5.56414   -4.51294   -3.56739   -3.12962   -0.41335    0.03971    1.08055
 kpt#  20, nband= 16, wtk=  1.00000, kpt=  0.4667  0.0667  0.0000 (reduced coord)
 -61.42090  -36.84073  -36.64539  -36.59078  -14.60240  -14.48261   -8.10284   -7.32107
  -6.46767   -5.58749   -4.50272   -3.81991   -3.03622   -0.40418    0.07213    1.16344
 kpt#  21, nband= 16, wtk=  1.00000, kpt=  0.4500  0.1000  0.0000 (reduced coord)
 -61.42259  -36.83602  -36.64382  -36.60316  -14.57774  -14.46651   -8.02527   -7.36474
  -6.44067   -5.61361   -4.49493   -4.13030   -2.96736   -0.41748    0.11440    1.11326
 kpt#  22, nband= 16, wtk=  1.00000, kpt=  0.4333  0.1333  0.0000 (reduced coord)
 -61.40338  -36.82580  -36.64076  -36.61197  -14.54531  -14.44572   -7.91832   -7.42496
  -6.40668   -5.62974   -4.49858   -4.47653   -2.91269   -0.45038    0.20507    0.83382
 kpt#  23, nband= 16, wtk=  1.00000, kpt=  0.4167  0.1667  0.0000 (reduced coord)
 -61.39977  -36.81310  -36.64024  -36.63015  -14.50773  -14.42187   -7.78596   -7.49804
  -6.37018   -5.62778   -4.84005   -4.52019   -2.86196   -0.51196    0.31089    0.66117
 kpt#  24, nband= 16, wtk=  1.00000, kpt=  0.4000  0.2000  0.0000 (reduced coord)
 -61.40704  -36.79938  -36.65386  -36.64155  -14.46814  -14.39710   -7.63086   -7.57710
  -6.33763   -5.60488   -5.20261   -4.56196   -2.80540   -0.59718    0.41124    0.46700
 kpt#  25, nband= 16, wtk=  1.00000, kpt=  0.3833  0.2333  0.0000 (reduced coord)
 -61.41206  -36.78734  -36.67463  -36.64227  -14.43007  -14.37340   -7.65325   -7.45866
  -6.31889   -5.56247   -5.54044   -4.62165   -2.74023   -0.69519    0.33703    0.52621
 kpt#  26, nband= 16, wtk=  1.00000, kpt=  0.3667  0.2667  0.0000 (reduced coord)
 -61.41233  -36.77478  -36.69641  -36.63872  -14.39757  -14.35350   -7.71754   -7.27756
  -6.33904   -5.81372   -5.50878   -4.69038   -2.67206   -0.78947    0.24858    0.62756
 kpt#  27, nband= 16, wtk=  1.00000, kpt=  0.3500  0.3000  0.0000 (reduced coord)
 -61.39490  -36.76158  -36.70942  -36.63315  -14.37449  -14.33977   -7.76093   -7.10850
  -6.43074   -5.96119   -5.45897   -4.75107   -2.61553   -0.86099    0.20065    0.69892
 kpt#  28, nband= 16, wtk=  1.00000, kpt=  0.3333  0.3333  0.0000 (reduced coord)
 -61.39520  -36.75610  -36.71764  -36.63188  -14.36592  -14.33479   -7.77675   -7.02484
  -6.50637   -5.99417   -5.43687   -4.77759   -2.59239   -0.88885    0.18656    0.72605
 kpt#  29, nband= 16, wtk=  1.00000, kpt=  0.3167  0.3167  0.0000 (reduced coord)
 -61.39493  -36.76070  -36.71038  -36.63292  -14.37576  -14.34028   -7.75937   -7.10374
  -6.42092   -5.97484   -5.46182   -4.74694   -2.61893   -0.85946    0.19748    0.69554
 kpt#  30, nband= 16, wtk=  1.00000, kpt=  0.3000  0.3000  0.0000 (reduced coord)
 -61.41032  -36.77063  -36.69703  -36.63968  -14.40795  -14.35756   -7.70525   -7.24574
  -6.25911   -5.91819   -5.52697   -4.66241   -2.69618   -0.78091    0.22266    0.60346
 kpt#  31, nband= 16, wtk=  1.00000, kpt=  0.2833  0.2833  0.0000 (reduced coord)
 -61.42574  -36.78289  -36.68358  -36.63998  -14.46499  -14.38691   -7.61213   -7.37154
  -6.13078   -5.79628   -5.60970   -4.54271   -2.80819   -0.67749    0.25026    0.45813
 kpt#  32, nband= 16, wtk=  1.00000, kpt=  0.2667  0.2667  0.0000 (reduced coord)
 -61.43591  -36.78569  -36.66599  -36.64643  -14.54692  -14.42830   -7.48035   -7.45664
  -6.07131   -5.69150   -5.60152   -4.40539   -2.93403   -0.58633    0.26625    0.28863
 kpt#  33, nband= 16, wtk=  1.00000, kpt=  0.2500  0.2500  0.0000 (reduced coord)
 -61.42886  -36.77964  -36.64890  -36.64748  -14.65274  -14.48003   -7.49699   -7.31119
  -6.05497   -5.76002   -5.37433   -4.26095   -3.05587   -0.54234    0.11837    0.26036
 kpt#  34, nband= 16, wtk=  1.00000, kpt=  0.2333  0.2333  0.0000 (reduced coord)
 -61.41177  -36.76754  -36.65010  -36.62632  -14.77962  -14.54097   -7.49416   -7.10806
  -6.06703   -5.80706   -5.14117   -4.11723   -3.16191   -0.57282   -0.00690    0.22637
 kpt#  35, nband= 16, wtk=  1.00000, kpt=  0.2167  0.2167  0.0000 (reduced coord)
 -61.42392  -36.75531  -36.65594  -36.61274  -14.92447  -14.60966   -7.45555   -6.87648
  -6.10392   -5.82743   -4.91506   -3.98081   -3.24774   -0.66467   -0.08694    0.16372
 kpt#  36, nband= 16, wtk=  1.00000, kpt=  0.2000  0.2000  0.0000 (reduced coord)
 -61.45169  -36.74608  -36.66245  -36.60080  -15.08225  -14.68338   -7.39193   -6.62354
  -6.15771   -5.81549   -4.70637   -3.85595   -3.31273   -0.76592   -0.14434    0.08043
 kpt#  37, nband= 16, wtk=  1.00000, kpt=  0.1833  0.1833  0.0000 (reduced coord)
 -61.44326  -36.71911  -36.66865  -36.58427  -15.24722  -14.75993   -7.32038   -6.36140
  -6.21018   -5.76247   -4.52731   -3.74678   -3.35402   -0.83318   -0.20101   -0.01244
 kpt#  38, nband= 16, wtk=  1.00000, kpt=  0.1667  0.1667  0.0000 (reduced coord)
 -61.46275  -36.70160  -36.67568  -36.57056  -15.41531  -14.83740   -7.26890   -6.23689
  -6.11142   -5.65412   -4.40270   -3.65663   -3.36147   -0.85100   -0.24914   -0.10394
 kpt#  39, nband= 16, wtk=  1.00000, kpt=  0.1500  0.1500  0.0000 (reduced coord)
 -61.48253  -36.68209  -36.68013  -36.56029  -15.58216  -14.91405   -7.26617   -6.20494
  -5.89976   -5.47190   -4.35422   -3.58781   -3.31859   -0.82045   -0.27782   -0.18390
 kpt#  40, nband= 16, wtk=  1.00000, kpt=  0.1333  0.1333  0.0000 (reduced coord)
 -61.48666  -36.68672  -36.65240  -36.54927  -15.74191  -14.98741   -7.32173   -6.10216
  -5.72475   -5.22837   -4.38200   -3.54202   -3.22602   -0.75222   -0.27446   -0.24352
 kpt#  41, nband= 16, wtk=  1.00000, kpt=  0.1167  0.1167  0.0000 (reduced coord)
 -61.50446  -36.69631  -36.62684  -36.53940  -15.89202  -15.05618   -7.41986   -5.94580
  -5.56012   -4.96213   -4.46184   -3.52082   -3.10954   -0.65818   -0.27619   -0.23258
 kpt#  42, nband= 16, wtk=  1.00000, kpt=  0.1000  0.1000  0.0000 (reduced coord)
 -61.50478  -36.70256  -36.59695  -36.52925  -16.02826  -15.11881   -7.53736   -5.75840
  -5.38936   -4.70334   -4.56460   -3.52442   -2.99616   -0.54125   -0.27656   -0.15639
 kpt#  43, nband= 16, wtk=  1.00000, kpt=  0.0833  0.0833  0.0000 (reduced coord)
 -61.50246  -36.70664  -36.56813  -36.52172  -16.14773  -15.17390   -7.65607   -5.56103
  -5.20885   -4.67067   -4.47060   -3.55396   -2.90298   -0.40027   -0.24129   -0.06313
 kpt#  44, nband= 16, wtk=  1.00000, kpt=  0.0667  0.0667  0.0000 (reduced coord)
 -61.52192  -36.71306  -36.55048  -36.51658  -16.24953  -15.22086   -7.76614   -5.37168
  -5.02088   -4.76869   -4.27519   -3.60923   -2.83628   -0.23679   -0.17696    0.07249
 kpt#  45, nband= 16, wtk=  1.00000, kpt=  0.0500  0.0500  0.0000 (reduced coord)
 -61.52967  -36.71717  -36.53219  -36.51305  -16.33006  -15.25812   -7.85768   -5.20496
  -4.85020   -4.83071   -4.12332   -3.68911   -2.79319   -0.09509   -0.06181    0.12345
 kpt#  46, nband= 16, wtk=  1.00000, kpt=  0.0333  0.0333  0.0000 (reduced coord)
 -61.52291  -36.71666  -36.51679  -36.50917  -16.38840  -15.28507   -7.92585   -5.07364
  -4.91087   -4.64941   -4.01647   -3.78687   -2.76795    0.01661    0.09489    0.17045
 kpt#  47, nband= 16, wtk=  1.00000, kpt=  0.0167  0.0167  0.0000 (reduced coord)
 -61.52383  -36.71735  -36.50920  -36.50685  -16.42389  -15.30142   -7.96813   -4.98981
  -4.94817   -4.49960   -3.95363   -3.88498   -2.75559    0.05820    0.13579    0.19728
 kpt#  48, nband= 16, wtk=  1.00000, kpt=  0.0000  0.0000  0.0000 (reduced coord)
 -61.51240  -36.71383  -36.50509  -36.50509  -16.43480  -15.30646   -7.98186   -4.96052
  -4.96052   -4.43395   -3.93277   -3.93277   -2.75186    0.07686    0.09112    0.23599

== END DATASET(S) ==============================================================
================================================================================
  
 -outvars: echo values of variables after computation  --------
            acell      6.0564706910E+00  6.0564706910E+00  3.8453782165E+01 Bohr
              amu      9.59400000E+01  3.20660000E+01
           diemac      1.20000000E+01
             ecut      1.70000000E+01 Hartree
           enunit1          0
           enunit2          1
           etotal1    -9.0058544620E+01
            fcart1     2.9639321430E-29  1.7112270206E-29 -0.0000000000E+00
                      -1.4819660715E-29 -8.5561351032E-30 -2.4280531097E-02
                      -1.4819660715E-29 -8.5561351032E-30  2.4280531097E-02
-          fftalg         112
           getden1          0
           getden2         -1
             iscf1          7
             iscf2         -2
           istwfk1       4    0    0    0    5    0    0    0    0    0
           istwfk2       2    0    0    0    0    0    0    0    0    0
                         0    0    0    0    0    0    0    3    0    0
                         0    0    0    0    0    0    0    0    0    0
                         0    0    0    0    0    0    0    0    0    0
                         0    0    0    0    0    0    0    2
           jdtset        1    2
              kpt1     0.00000000E+00  0.00000000E+00  5.00000000E-01
                       1.25000000E-01  0.00000000E+00  5.00000000E-01
                       2.50000000E-01  0.00000000E+00  5.00000000E-01
                       3.75000000E-01  0.00000000E+00  5.00000000E-01
                       5.00000000E-01  0.00000000E+00  5.00000000E-01
                       1.25000000E-01  1.25000000E-01  5.00000000E-01
                       2.50000000E-01  1.25000000E-01  5.00000000E-01
                       3.75000000E-01  1.25000000E-01  5.00000000E-01
                       2.50000000E-01  2.50000000E-01  5.00000000E-01
                       3.75000000E-01  2.50000000E-01  5.00000000E-01
              kpt2     0.00000000E+00  0.00000000E+00  0.00000000E+00
                       2.94117647E-02  0.00000000E+00  0.00000000E+00
                       5.88235294E-02  0.00000000E+00  0.00000000E+00
                       8.82352941E-02  0.00000000E+00  0.00000000E+00
                       1.17647059E-01  0.00000000E+00  0.00000000E+00
                       1.47058824E-01  0.00000000E+00  0.00000000E+00
                       1.76470588E-01  0.00000000E+00  0.00000000E+00
                       2.05882353E-01  0.00000000E+00  0.00000000E+00
                       2.35294118E-01  0.00000000E+00  0.00000000E+00
                       2.64705882E-01  0.00000000E+00  0.00000000E+00
                       2.94117647E-01  0.00000000E+00  0.00000000E+00
                       3.23529412E-01  0.00000000E+00  0.00000000E+00
                       3.52941176E-01  0.00000000E+00  0.00000000E+00
                       3.82352941E-01  0.00000000E+00  0.00000000E+00
                       4.11764706E-01  0.00000000E+00  0.00000000E+00
                       4.41176471E-01  0.00000000E+00  0.00000000E+00
                       4.70588235E-01  0.00000000E+00  0.00000000E+00
                       5.00000000E-01  0.00000000E+00  0.00000000E+00
                       4.83333333E-01  3.33333333E-02  0.00000000E+00
                       4.66666667E-01  6.66666667E-02  0.00000000E+00
                       4.50000000E-01  1.00000000E-01  0.00000000E+00
                       4.33333333E-01  1.33333333E-01  0.00000000E+00
                       4.16666667E-01  1.66666667E-01  0.00000000E+00
                       4.00000000E-01  2.00000000E-01  0.00000000E+00
                       3.83333333E-01  2.33333333E-01  0.00000000E+00
                       3.66666667E-01  2.66666667E-01  0.00000000E+00
                       3.50000000E-01  3.00000000E-01  0.00000000E+00
                       3.33333333E-01  3.33333333E-01  0.00000000E+00
                       3.16666667E-01  3.16666667E-01  0.00000000E+00
                       3.00000000E-01  3.00000000E-01  0.00000000E+00
                       2.83333333E-01  2.83333333E-01  0.00000000E+00
                       2.66666667E-01  2.66666667E-01  0.00000000E+00
                       2.50000000E-01  2.50000000E-01  0.00000000E+00
                       2.33333333E-01  2.33333333E-01  0.00000000E+00
                       2.16666667E-01  2.16666667E-01  0.00000000E+00
                       2.00000000E-01  2.00000000E-01  0.00000000E+00
                       1.83333333E-01  1.83333333E-01  0.00000000E+00
                       1.66666667E-01  1.66666667E-01  0.00000000E+00
                       1.50000000E-01  1.50000000E-01  0.00000000E+00
                       1.33333333E-01  1.33333333E-01  0.00000000E+00
                       1.16666667E-01  1.16666667E-01  0.00000000E+00
                       1.00000000E-01  1.00000000E-01  0.00000000E+00
                       8.33333333E-02  8.33333333E-02  0.00000000E+00
                       6.66666667E-02  6.66666667E-02  0.00000000E+00
                       5.00000000E-02  5.00000000E-02  0.00000000E+00
                       3.33333333E-02  3.33333333E-02  0.00000000E+00
                       1.66666667E-02  1.66666667E-02  0.00000000E+00
                       0.00000000E+00  0.00000000E+00  0.00000000E+00
           kptopt1          1
           kptopt2         -3
         kptrlatt        8    0    0      0    8    0      0    0    1
          kptrlen1     4.84517655E+01
          kptrlen2     3.00000000E+01
P           mkmem1         10
P           mkmem2         48
            natom           3
            nband1         14
            nband2         16
           nbdbuf1          0
           nbdbuf2          2
           ndtset           2
            ngfft          24      24     144
             nkpt1         10
             nkpt2         48
            nstep          10
             nsym          12
           ntypat           2
              occ      2.000000  2.000000  2.000000  2.000000  2.000000  2.000000
                       2.000000  2.000000  2.000000  2.000000  2.000000  2.000000
                       2.000000  0.000000
            rprim      1.0000000000E+00  0.0000000000E+00  0.0000000000E+00
                      -5.0000000000E-01  8.6602540378E-01  0.0000000000E+00
                       0.0000000000E+00  0.0000000000E+00  1.0000000000E+00
           shiftk1     0.00000000E+00  0.00000000E+00  5.00000000E-01
           shiftk2     5.00000000E-01  5.00000000E-01  5.00000000E-01
          spgroup         187
           strten1     5.5866435828E-04  5.5866435829E-04  5.7926086027E-04
                       0.0000000000E+00  0.0000000000E+00  0.0000000000E+00
           symrel      1  0  0   0  1  0   0  0  1       0 -1  0  -1  0  0   0  0 -1
                      -1 -1  0   1  0  0   0  0 -1      -1  0  0   1  1  0   0  0  1
                       0  1  0  -1 -1  0   0  0  1       1  1  0   0 -1  0   0  0 -1
                       1  0  0   0  1  0   0  0 -1       0 -1  0  -1  0  0   0  0  1
                      -1 -1  0   1  0  0   0  0  1      -1  0  0   1  1  0   0  0 -1
                       0  1  0  -1 -1  0   0  0 -1       1  1  0   0 -1  0   0  0  1
           toldfe1     1.00000000E-06 Hartree
           toldfe2     0.00000000E+00 Hartree
           tolwfr1     0.00000000E+00
           tolwfr2     1.00000000E-12
            typat      1  2  2
              wtk1       0.01563    0.09375    0.09375    0.09375    0.04688    0.09375
                         0.18750    0.18750    0.09375    0.09375
              wtk2       1.00000    1.00000    1.00000    1.00000    1.00000    1.00000
                         1.00000    1.00000    1.00000    1.00000    1.00000    1.00000
                         1.00000    1.00000    1.00000    1.00000    1.00000    1.00000
                         1.00000    1.00000    1.00000    1.00000    1.00000    1.00000
                         1.00000    1.00000    1.00000    1.00000    1.00000    1.00000
                         1.00000    1.00000    1.00000    1.00000    1.00000    1.00000
                         1.00000    1.00000    1.00000    1.00000    1.00000    1.00000
                         1.00000    1.00000    1.00000    1.00000    1.00000    1.00000
           xangst      1.6237379922E-27  0.0000000000E+00  1.6459063547E-19
                       1.6024731271E+00  9.2518829129E-01  1.6091498044E+00
                       1.6024731271E+00  9.2518829129E-01 -1.6091498044E+00
            xcart      3.0684201168E-27  0.0000000000E+00  3.1103122508E-19
                       3.0282353455E+00  1.7483524919E+00  3.0408524371E+00
                       3.0282353455E+00  1.7483524919E+00 -3.0408524371E+00
             xred      5.0663501458E-28  0.0000000000E+00  8.0884429974E-21
                       6.6666666667E-01  3.3333333333E-01  7.9078110549E-02
                       6.6666666667E-01  3.3333333333E-01 -7.9078110549E-02
            znucl       42.00000   16.00000

================================================================================

- Total cpu        time (s,m,h):        270.7        4.51      0.075
- Total wall clock time (s,m,h):        151.9        2.53      0.042
-
- For major independent code sections, cpu and wall times (sec),
-  as well as % of the time and number of calls for node 0-
-<BEGIN_TIMER mpi_nprocs = 1, omp_nthreads = 1, mpi_rank = 0>
- cpu_time =          270.7, wall_time =          151.9
-
- routine                        cpu     %       wall     %      number of calls  Gflops    Speedup Efficacity
-                                                                  (-1=no count)
- fourwf%(pot)                 136.672  50.5     77.059  50.7          39853      -1.00        1.77       1.77
- nonlop(apply)                 69.040  25.5     39.653  26.1          39853      -1.00        1.74       1.74
- projbd                        36.081  13.3     21.441  14.1          60986      -1.00        1.68       1.68
- vtowfk(ssdiag)                 8.360   3.1      2.533   1.7             -1      -1.00        3.30       3.30
- fourwf%(den)                   4.848   1.8      1.370   0.9           1300      -1.00        3.54       3.54
- getghc-other                   2.044   0.8      1.094   0.7             -1      -1.00        1.87       1.87
- others (107)                   3.152   1.2      2.485   1.6             -1      -1.00        1.27       1.27
-<END_TIMER>
-
- subtotal                     260.197  96.1    145.635  95.9                                  1.79       1.79

- For major independent code sections, cpu and wall times (sec),
- as well as % of the total time and number of calls 

-<BEGIN_TIMER mpi_nprocs = 1, omp_nthreads = 1, mpi_rank = world>
- cpu_time =         270.7, wall_time =         151.9
-
- routine                         cpu     %       wall     %      number of calls Gflops    Speedup Efficacity
-                                                                  (-1=no count)
- fourwf%(pot)                 136.672  50.5     77.059  50.7          39853      -1.00        1.77       1.77
- nonlop(apply)                 69.040  25.5     39.653  26.1          39853      -1.00        1.74       1.74
- projbd                        36.081  13.3     21.441  14.1          60986      -1.00        1.68       1.68
- vtowfk(ssdiag)                 8.360   3.1      2.533   1.7             -1      -1.00        3.30       3.30
- fourwf%(den)                   4.848   1.8      1.370   0.9           1300      -1.00        3.54       3.54
- getghc-other                   2.044   0.8      1.094   0.7             -1      -1.00        1.87       1.87
- others (107)                   3.152   1.2      2.485   1.6             -1      -1.00        1.27       1.27
-<END_TIMER>

- subtotal                     260.197  96.1    145.635  95.9                                  1.79       1.79

================================================================================

 Suggested references for the acknowledgment of ABINIT usage.

 The users of ABINIT have little formal obligations with respect to the ABINIT group
 (those specified in the GNU General Public License, http://www.gnu.org/copyleft/gpl.txt).
 However, it is common practice in the scientific literature,
 to acknowledge the efforts of people that have made the research possible.
 In this spirit, please find below suggested citations of work written by ABINIT developers,
 corresponding to implementations inside of ABINIT that you have used in the present run.
 Note also that it will be of great value to readers of publications presenting these results,
 to read papers enabling them to understand the theoretical formalism and details
 of the ABINIT implementation.
 For information on why they are suggested, see also http://www.abinit.org/about/?text=acknowledgments.
-
- [1] Recent developments in the ABINIT software package.
- Computer Phys. Comm. 205, 106 (2016).
- X.Gonze, F.Jollet, F.Abreu Araujo, D.Adams, B.Amadon, T.Applencourt,
- C.Audouze, J.-M.Beuken, J.Bieder, A.Bokhanchuk, E.Bousquet, F.Bruneval
- D.Caliste, M.Cote, F.Dahm, F.Da Pieve, M.Delaveau, M.Di Gennaro,
- B.Dorado, C.Espejo, G.Geneste, L.Genovese, A.Gerossier, M.Giantomassi,
- Y.Gillet, D.R.Hamann, L.He, G.Jomard, J.Laflamme Janssen, S.Le Roux,
- A.Levitt, A.Lherbier, F.Liu, I.Lukacevic, A.Martin, C.Martins,
- M.J.T.Oliveira, S.Ponce, Y.Pouillon, T.Rangel, G.-M.Rignanese,
- A.H.Romero, B.Rousseau, O.Rubel, A.A.Shukri, M.Stankovski, M.Torrent,
- M.J.Van Setten, B.Van Troeye, M.J.Verstraete, D.Waroquier, J.Wiktor,
- B.Xue, A.Zhou, J.W.Zwanziger.
- Comment : the fourth generic paper describing the ABINIT project.
- Note that a version of this paper, that is not formatted for Computer Phys. Comm. 
- is available at http://www.abinit.org/about/ABINIT16.pdf .
- The licence allows the authors to put it on the Web.
-
- [2] Optimized norm-conserving Vanderbilt pseudopotentials.
- D.R. Hamann, Phys. Rev. B 88, 085117 (2013).
- Comment: Some pseudopotential generated using the ONCVPSP code were used.
-
- [3] ABINIT : First-principles approach of materials and nanosystem properties.
- Computer Phys. Comm. 180, 2582-2615 (2009).
- X. Gonze, B. Amadon, P.-M. Anglade, J.-M. Beuken, F. Bottin, P. Boulanger, F. Bruneval,
- D. Caliste, R. Caracas, M. Cote, T. Deutsch, L. Genovese, Ph. Ghosez, M. Giantomassi
- S. Goedecker, D.R. Hamann, P. Hermet, F. Jollet, G. Jomard, S. Leroux, M. Mancini, S. Mazevet,
- M.J.T. Oliveira, G. Onida, Y. Pouillon, T. Rangel, G.-M. Rignanese, D. Sangalli, R. Shaltaf,
- M. Torrent, M.J. Verstraete, G. Zerah, J.W. Zwanziger
- Comment : the third generic paper describing the ABINIT project.
- Note that a version of this paper, that is not formatted for Computer Phys. Comm. 
- is available at http://www.abinit.org/about/ABINIT_CPC_v10.pdf .
- The licence allows the authors to put it on the Web.
-
- [4] A brief introduction to the ABINIT software package.
- Z. Kristallogr. 220, 558-562 (2005).
- X. Gonze, G.-M. Rignanese, M. Verstraete, J.-M. Beuken, Y. Pouillon, R. Caracas, F. Jollet,
- M. Torrent, G. Zerah, M. Mikami, Ph. Ghosez, M. Veithen, J.-Y. Raty, V. Olevano, F. Bruneval,
- L. Reining, R. Godby, G. Onida, D.R. Hamann, and D.C. Allan.
- Comment : the second generic paper describing the ABINIT project. Note that this paper
- should be cited especially if you are using the GW part of ABINIT, as several authors
- of this part are not in the list of authors of the first or third paper.
- The .pdf of the latter paper is available at http://www.abinit.org/about/zfk_0505-06_558-562.pdf.
- Note that it should not redistributed (Copyright by Oldenburg Wissenshaftverlag,
- the licence allows the authors to put it on the Web).
-
- And optionally:
-
- [5] First-principles computation of material properties : the ABINIT software project. 
- X. Gonze, J.-M. Beuken, R. Caracas, F. Detraux, M. Fuchs, G.-M. Rignanese, L. Sindic,
- M. Verstraete, G. Zerah, F. Jollet, M. Torrent, A. Roy, M. Mikami, Ph. Ghosez, J.-Y. Raty, D.C. Allan.
- Computational Materials Science 25, 478-492 (2002). http://dx.doi.org/10.1016/S0927-0256(02)00325-7
- Comment : the original paper describing the ABINIT project.
-
- Proc.   0 individual time (sec): cpu=        270.8  wall=        151.9

================================================================================

 Calculation completed.
.Delivered  60 WARNINGs and   3 COMMENTs to log file.
+Overall time at end (sec) : cpu=        270.8  wall=        151.9
