
.Version 8.4.1 of ABINIT 
.(sequential version, prepared for a x86_64_linux_gnu7.0 computer) 

.Copyright (C) 1998-2017 ABINIT group . 
 ABINIT comes with ABSOLUTELY NO WARRANTY.
 It is free software, and you are welcome to redistribute it
 under certain conditions (GNU General Public License,
 see ~abinit/COPYING or http://www.gnu.org/copyleft/gpl.txt).

 ABINIT is a project of the Universite Catholique de Louvain,
 Corning Inc. and other collaborators, see ~abinit/doc/developers/contributors.txt .
 Please read ~abinit/doc/users/acknowledgments.html for suggested
 acknowledgments of the ABINIT effort.
 For more information, see http://www.abinit.org .

.Starting date : Wed  9 Aug 2017.
- ( at 11h46 )
  
- input  file    -> mos2_5.in
- output file    -> mos2_5.out
- root for input  files -> mos2_5i
- root for output files -> mos2_5o


 DATASET    1 : space group P-6 m 2 (#187); Bravais hP (primitive hexag.)
================================================================================
 Values of the parameters that define the memory need for DATASET  1.
     intxc =       0    ionmov =       0      iscf =       7    lmnmax =       6
     lnmax =       6     mgfft =     144  mpssoang =       3    mqgrid =    7138
     natom =       3  nloc_mem =       1    nspden =       1   nspinor =       1
    nsppol =       1      nsym =      12    n1xccc =    2501    ntypat =       2
    occopt =       1   xclevel =       1
-    mband =          10        mffmem =           1         mkmem =          10
       mpw =        4122          nfft =       82944          nkpt =          10
================================================================================
P This job should need less than                      33.325 Mbytes of memory.
  Rough estimation (10% accuracy) of disk space for files :
_ WF disk file :      6.292 Mbytes ; DEN or POT disk file :      0.635 Mbytes.
================================================================================


 DATASET    2 : space group P-6 m 2 (#187); Bravais hP (primitive hexag.)
================================================================================
 Values of the parameters that define the memory need for DATASET  2.
     intxc =       0    ionmov =       0      iscf =      -2    lmnmax =       6
     lnmax =       6     mgfft =     144  mpssoang =       3    mqgrid =    7138
     natom =       3  nloc_mem =       1    nspden =       1   nspinor =       1
    nsppol =       1      nsym =      12    n1xccc =    2501    ntypat =       2
    occopt =       1   xclevel =       1
-    mband =          16        mffmem =           1         mkmem =          96
       mpw =        4133          nfft =       82944          nkpt =          96
================================================================================
P This job should need less than                     118.107 Mbytes of memory.
  Rough estimation (10% accuracy) of disk space for files :
_ WF disk file :     96.869 Mbytes ; DEN or POT disk file :      0.635 Mbytes.
================================================================================

--------------------------------------------------------------------------------
------------- Echo of variables that govern the present computation ------------
--------------------------------------------------------------------------------
-
- outvars: echo of selected default values                                      
-   iomode0 =  0 , fftalg0 =112 , wfoptalg0 =  0
-
- outvars: echo of global parameters not present in the input file              
-  max_nthreads =    0
-
 -outvars: echo values of preprocessed input variables --------
            acell      6.0564706910E+00  6.0564706910E+00  3.8453782165E+01 Bohr
              amu      9.59400000E+01  3.20660000E+01
           diemac      1.20000000E+01
             ecut      1.70000000E+01 Hartree
           enunit1          0
           enunit2          1
-          fftalg         112
           getden1          0
           getden2         -1
             iscf1          7
             iscf2         -2
           istwfk1       4    0    0    0    5    0    0    0    0    0
           istwfk2       2    0    0    0    0    0    0    0    0    0
                         0    0    0    0    0    0    0    0    0    0
                         0    0    0    0    0    0    0    0    0    0
                         0    0    0    0    0    3    0    0    0    0
                         0    0    0    0    0    0    0    0    0    0
                       outvar_i_n : Printing only first  50 k-points.
           jdtset        1    2
              kpt1     0.00000000E+00  0.00000000E+00  5.00000000E-01
                       1.25000000E-01  0.00000000E+00  5.00000000E-01
                       2.50000000E-01  0.00000000E+00  5.00000000E-01
                       3.75000000E-01  0.00000000E+00  5.00000000E-01
                       5.00000000E-01  0.00000000E+00  5.00000000E-01
                       1.25000000E-01  1.25000000E-01  5.00000000E-01
                       2.50000000E-01  1.25000000E-01  5.00000000E-01
                       3.75000000E-01  1.25000000E-01  5.00000000E-01
                       2.50000000E-01  2.50000000E-01  5.00000000E-01
                       3.75000000E-01  2.50000000E-01  5.00000000E-01
              kpt2     0.00000000E+00  0.00000000E+00  0.00000000E+00
                       1.42857143E-02  0.00000000E+00  0.00000000E+00
                       2.85714286E-02  0.00000000E+00  0.00000000E+00
                       4.28571429E-02  0.00000000E+00  0.00000000E+00
                       5.71428571E-02  0.00000000E+00  0.00000000E+00
                       7.14285714E-02  0.00000000E+00  0.00000000E+00
                       8.57142857E-02  0.00000000E+00  0.00000000E+00
                       1.00000000E-01  0.00000000E+00  0.00000000E+00
                       1.14285714E-01  0.00000000E+00  0.00000000E+00
                       1.28571429E-01  0.00000000E+00  0.00000000E+00
                       1.42857143E-01  0.00000000E+00  0.00000000E+00
                       1.57142857E-01  0.00000000E+00  0.00000000E+00
                       1.71428571E-01  0.00000000E+00  0.00000000E+00
                       1.85714286E-01  0.00000000E+00  0.00000000E+00
                       2.00000000E-01  0.00000000E+00  0.00000000E+00
                       2.14285714E-01  0.00000000E+00  0.00000000E+00
                       2.28571429E-01  0.00000000E+00  0.00000000E+00
                       2.42857143E-01  0.00000000E+00  0.00000000E+00
                       2.57142857E-01  0.00000000E+00  0.00000000E+00
                       2.71428571E-01  0.00000000E+00  0.00000000E+00
                       2.85714286E-01  0.00000000E+00  0.00000000E+00
                       3.00000000E-01  0.00000000E+00  0.00000000E+00
                       3.14285714E-01  0.00000000E+00  0.00000000E+00
                       3.28571429E-01  0.00000000E+00  0.00000000E+00
                       3.42857143E-01  0.00000000E+00  0.00000000E+00
                       3.57142857E-01  0.00000000E+00  0.00000000E+00
                       3.71428571E-01  0.00000000E+00  0.00000000E+00
                       3.85714286E-01  0.00000000E+00  0.00000000E+00
                       4.00000000E-01  0.00000000E+00  0.00000000E+00
                       4.14285714E-01  0.00000000E+00  0.00000000E+00
                       4.28571429E-01  0.00000000E+00  0.00000000E+00
                       4.42857143E-01  0.00000000E+00  0.00000000E+00
                       4.57142857E-01  0.00000000E+00  0.00000000E+00
                       4.71428571E-01  0.00000000E+00  0.00000000E+00
                       4.85714286E-01  0.00000000E+00  0.00000000E+00
                       5.00000000E-01  0.00000000E+00  0.00000000E+00
                       4.91666667E-01  1.66666667E-02  0.00000000E+00
                       4.83333333E-01  3.33333333E-02  0.00000000E+00
                       4.75000000E-01  5.00000000E-02  0.00000000E+00
                       4.66666667E-01  6.66666667E-02  0.00000000E+00
                       4.58333333E-01  8.33333333E-02  0.00000000E+00
                       4.50000000E-01  1.00000000E-01  0.00000000E+00
                       4.41666667E-01  1.16666667E-01  0.00000000E+00
                       4.33333333E-01  1.33333333E-01  0.00000000E+00
                       4.25000000E-01  1.50000000E-01  0.00000000E+00
                       4.16666667E-01  1.66666667E-01  0.00000000E+00
                       4.08333333E-01  1.83333333E-01  0.00000000E+00
                       4.00000000E-01  2.00000000E-01  0.00000000E+00
                       3.91666667E-01  2.16666667E-01  0.00000000E+00
                       3.83333333E-01  2.33333333E-01  0.00000000E+00
                       outvar_i_n : Printing only first  50 k-points.
           kptopt1          1
           kptopt2         -3
         kptrlatt        8    0    0      0    8    0      0    0    1
          kptrlen1     4.84517655E+01
          kptrlen2     3.00000000E+01
P           mkmem1         10
P           mkmem2         96
            natom           3
            nband1         10
            nband2         16
           nbdbuf1          0
           nbdbuf2          2
           ndtset           2
            ngfft          24      24     144
             nkpt1         10
             nkpt2         96
            nstep          10
             nsym          12
           ntypat           2
              occ      2.000000  2.000000  2.000000  2.000000  2.000000  2.000000
                       2.000000  2.000000  2.000000  0.000000
            rprim      1.0000000000E+00  0.0000000000E+00  0.0000000000E+00
                      -5.0000000000E-01  8.6602540378E-01  0.0000000000E+00
                       0.0000000000E+00  0.0000000000E+00  1.0000000000E+00
           shiftk1     0.00000000E+00  0.00000000E+00  5.00000000E-01
           shiftk2     5.00000000E-01  5.00000000E-01  5.00000000E-01
          spgroup         187
           symrel      1  0  0   0  1  0   0  0  1       0 -1  0  -1  0  0   0  0 -1
                      -1 -1  0   1  0  0   0  0 -1      -1  0  0   1  1  0   0  0  1
                       0  1  0  -1 -1  0   0  0  1       1  1  0   0 -1  0   0  0 -1
                       1  0  0   0  1  0   0  0 -1       0 -1  0  -1  0  0   0  0  1
                      -1 -1  0   1  0  0   0  0  1      -1  0  0   1  1  0   0  0 -1
                       0  1  0  -1 -1  0   0  0 -1       1  1  0   0 -1  0   0  0  1
           toldfe1     1.00000000E-06 Hartree
           toldfe2     0.00000000E+00 Hartree
           tolwfr1     0.00000000E+00
           tolwfr2     1.00000000E-12
            typat      1  2  2
              wtk1       0.01563    0.09375    0.09375    0.09375    0.04688    0.09375
                         0.18750    0.18750    0.09375    0.09375
              wtk2       1.00000    1.00000    1.00000    1.00000    1.00000    1.00000
                         1.00000    1.00000    1.00000    1.00000    1.00000    1.00000
                         1.00000    1.00000    1.00000    1.00000    1.00000    1.00000
                         1.00000    1.00000    1.00000    1.00000    1.00000    1.00000
                         1.00000    1.00000    1.00000    1.00000    1.00000    1.00000
                         1.00000    1.00000    1.00000    1.00000    1.00000    1.00000
                         1.00000    1.00000    1.00000    1.00000    1.00000    1.00000
                         1.00000    1.00000    1.00000    1.00000    1.00000    1.00000
                         1.00000    1.00000
                       outvars : Printing only first  50 k-points.
           xangst      1.2178034942E-27  7.0309917517E-28  1.6459063547E-19
                       1.6024731271E+00  9.2518829128E-01  1.6091498044E+00
                       1.6024731271E+00  9.2518829128E-01 -1.6091498044E+00
            xcart      2.3013150876E-27  1.3286648853E-27  3.1103122508E-19
                       3.0282353455E+00  1.7483524919E+00  3.0408524371E+00
                       3.0282353455E+00  1.7483524919E+00 -3.0408524371E+00
             xred      5.0663501458E-28  2.5331750729E-28  8.0884429974E-21
                       6.6666666667E-01  3.3333333333E-01  7.9078110549E-02
                       6.6666666667E-01  3.3333333333E-01 -7.9078110549E-02
            znucl       42.00000   16.00000

================================================================================

 chkinp: Checking input parameters for consistency, jdtset=   1.

 chkinp: Checking input parameters for consistency, jdtset=   2.

================================================================================
== DATASET  1 ==================================================================
-   nproc =    1

 Exchange-correlation functional for the present dataset will be:
  LDA: new Teter (4/93) with spin-polarized option - ixc=1
 Citation for XC functional:
  S. Goedecker, M. Teter, J. Huetter, PRB 54, 1703 (1996)

 Real(R)+Recip(G) space primitive vectors, cartesian coordinates (Bohr,Bohr^-1):
 R(1)=  6.0564707  0.0000000  0.0000000  G(1)=  0.1651127  0.0953278  0.0000000
 R(2)= -3.0282353  5.2450575  0.0000000  G(2)=  0.0000000  0.1906557  0.0000000
 R(3)=  0.0000000  0.0000000 38.4537822  G(3)=  0.0000000  0.0000000  0.0260052
 Unit cell volume ucvol=  1.2215435E+03 bohr^3
 Angles (23,13,12)=  9.00000000E+01  9.00000000E+01  1.20000000E+02 degrees

 getcut: wavevector=  0.0000  0.0000  0.0000  ngfft=  24  24 144
         ecut(hartree)=     17.000   => boxcut(ratio)=   2.01759

--- Pseudopotential description ------------------------------------------------
- pspini: atom type   1  psp file is ./42mo.pspnc
- pspatm: opening atomic psp file    ./42mo.pspnc
-  Troullier-Martins psp for element  Mo        Thu Oct 27 17:40:28 EDT 1994
- 42.00000   6.00000    940714                znucl, zion, pspdat
    1    1    2    0      2001   0.00000      pspcod,pspxc,lmax,lloc,mmax,r2well
    0   4.276   7.035    0   2.8930462        l,e99.0,e99.9,nproj,rcpsp
   0.00000000   0.00000000   0.00000000   0.00000000     rms, ekb1, ekb2, epsatm
    1   1.499   2.758    1   3.1973167        l,e99.0,e99.9,nproj,rcpsp
   0.00000000   0.00000000   0.00000000   0.00000000     rms, ekb1, ekb2, epsatm
    2  11.774  15.725    1   2.1974630        l,e99.0,e99.9,nproj,rcpsp
   0.00000000   0.00000000   0.00000000   0.00000000     rms, ekb1, ekb2, epsatm
    2.63204696240783    0.28531456933550    4.53995799271176   rchrg,fchrg,qchrg
 pspatm: epsatm=   89.23647829
         --- l  ekb(1:nproj) -->
             1    0.432305
             2   -4.457359
 pspatm: atomic psp has been read  and splines computed

- pspini: atom type   2  psp file is ./S.psp8
- pspatm: opening atomic psp file    ./S.psp8
- S     ONCVPSP  r_core=  1.45  1.45  1.62
- 16.00000   6.00000    151027                znucl, zion, pspdat
    8   11    2    4       600   0.00000      pspcod,pspxc,lmax,lloc,mmax,r2well
    5.99000000000000    6.00000000000000    0.00000000000000   rchrg,fchrg,qchrg
     nproj     2     2     2
extension_switch     1
 pspatm: epsatm=    9.01629391
         --- l  ekb(1:nproj) -->
             0    6.687458    0.573856
             1    3.355342    0.912754
             2   -8.510942   -1.367258
 pspatm: atomic psp has been read  and splines computed

   1.93084319E+03                                ecore*ucvol(ha*bohr**3)
--------------------------------------------------------------------------------

_setup2: Arith. and geom. avg. npw (full set) are    4087.500    4087.461

================================================================================

     iter   Etot(hartree)      deltaE(h)  residm     vres2
 ETOT  1  -31.706480421985    -3.171E+01 8.248E-02 2.495E+03
 ETOT  2  -31.678955215980     2.753E-02 5.045E-03 2.783E+03
 ETOT  3  -32.117438228493    -4.385E-01 5.275E-03 4.419E+02
 ETOT  4  -32.158318730422    -4.088E-02 4.290E-03 1.061E+02
 ETOT  5  -32.164970407621    -6.652E-03 1.353E-03 6.417E+00
 ETOT  6  -32.164945194747     2.521E-05 1.535E-03 2.886E+00
 ETOT  7  -32.164965402775    -2.021E-05 5.227E-04 2.110E+00
 ETOT  8  -32.164998345857    -3.294E-05 6.512E-04 3.725E-01
 ETOT  9  -32.164998453352    -1.075E-07 2.980E-04 2.168E-01
 ETOT 10  -32.165020815143    -2.236E-05 3.604E-04 5.103E-02

 Cartesian components of stress tensor (hartree/bohr^3)
  sigma(1 1)=  2.83462175E-05  sigma(3 2)=  0.00000000E+00
  sigma(2 2)=  2.83462175E-05  sigma(3 1)=  0.00000000E+00
  sigma(3 3)=  2.92347708E-05  sigma(2 1)=  0.00000000E+00


 scprqt:  WARNING -
  nstep=   10 was not enough SCF cycles to converge;
  maximum energy difference=  2.236E-05 exceeds toldfe=  1.000E-06

 Integrated electronic density in atomic spheres:
 ------------------------------------------------
 Atom  Sphere_radius  Integrated_density
    1        2.00000          2.94791379
    2        2.00000          3.82293572
    3        2.00000          3.82293572
================================================================================

 ----iterations are completed or convergence reached----

 Mean square residual over all n,k,spin=   8.3256E-06; max=  3.6039E-04
 reduced coordinates (array xred) for    3 atoms
       0.000000000000      0.000000000000      0.000000000000
       0.666666666667      0.333333333333      0.079078110549
       0.666666666667      0.333333333333     -0.079078110549
 rms dE/dt=  5.0962E-03; max dE/dt=  1.0811E-02; dE/dt below (all hartree)
    1       0.000000000000      0.000000000000      0.000000000000
    2      -0.000000000000      0.000000000000      0.010810700994
    3      -0.000000000000      0.000000000000     -0.010810700994

 cartesian coordinates (angstrom) at end:
    1      0.00000000000000     0.00000000000000     0.00000000000000
    2      1.60247312708526     0.92518829128708     1.60914980438335
    3      1.60247312708526     0.92518829128708    -1.60914980438335

 cartesian forces (hartree/bohr) at end:
    1     -0.00000000000000    -0.00000000000000    -0.00000000000000
    2      0.00000000000000     0.00000000000000    -0.00028113492056
    3      0.00000000000000     0.00000000000000     0.00028113492056
 frms,max,avg= 1.3252827E-04 2.8113492E-04   0.000E+00  0.000E+00  0.000E+00 h/b

 cartesian forces (eV/Angstrom) at end:
    1     -0.00000000000000    -0.00000000000000    -0.00000000000000
    2      0.00000000000000     0.00000000000000    -0.01445653765079
    3      0.00000000000000     0.00000000000000     0.01445653765079
 frms,max,avg= 6.8148772E-03 1.4456538E-02   0.000E+00  0.000E+00  0.000E+00 e/A
 length scales=  6.056470691000  6.056470691000 38.453782165000 bohr
              =  3.204946254171  3.204946254171 20.348865105803 angstroms
 prteigrs : about to open file mos2_5o_DS1_EIG
 Fermi (or HOMO) energy (hartree) =  -0.16116   Average Vxc (hartree)=  -0.14312
 Eigenvalues (hartree) for nkpt=  10  k points:
 kpt#   1, nband= 10, wtk=  0.01563, kpt=  0.0000  0.0000  0.5000 (reduced coord)
  -0.66834   -0.62786   -0.35623   -0.24479   -0.24479   -0.22204   -0.20442   -0.20442
  -0.16305   -0.05510
 prteigrs : prtvol=0 or 1, do not print more k-points.


--------------------------------------------------------------------------------
 Components of total free energy (in Hartree) :

    Kinetic energy  =  1.56201100023240E+01
    Hartree energy  =  1.16706783541106E+02
    XC energy       = -1.08357615587629E+01
    Ewald energy    =  9.06069793934787E+01
    PspCore energy  =  1.58065857439168E+00
    Loc. psp. energy= -2.40027569182947E+02
    NL   psp  energy= -5.81622158473390E+00
    >>>>>>>>> Etotal= -3.21650208151432E+01

 Other information on the energy :
    Total energy(eV)= -8.75254728265753E+02 ; Band energy (Ha)=  -6.0632107377E+00
--------------------------------------------------------------------------------

 Cartesian components of stress tensor (hartree/bohr^3)
  sigma(1 1)=  2.83462175E-05  sigma(3 2)=  0.00000000E+00
  sigma(2 2)=  2.83462175E-05  sigma(3 1)=  0.00000000E+00
  sigma(3 3)=  2.92347708E-05  sigma(2 1)=  0.00000000E+00

-Cartesian components of stress tensor (GPa)         [Pressure= -8.4269E-01 GPa]
- sigma(1 1)=  8.33974371E-01  sigma(3 2)=  0.00000000E+00
- sigma(2 2)=  8.33974372E-01  sigma(3 1)=  0.00000000E+00
- sigma(3 3)=  8.60116507E-01  sigma(2 1)=  0.00000000E+00

================================================================================
== DATASET  2 ==================================================================
-   nproc =    1

 mkfilename : getden/=0, take file _DEN from output of DATASET   1.

 Exchange-correlation functional for the present dataset will be:
  LDA: new Teter (4/93) with spin-polarized option - ixc=1
 Citation for XC functional:
  S. Goedecker, M. Teter, J. Huetter, PRB 54, 1703 (1996)

 Real(R)+Recip(G) space primitive vectors, cartesian coordinates (Bohr,Bohr^-1):
 R(1)=  6.0564707  0.0000000  0.0000000  G(1)=  0.1651127  0.0953278  0.0000000
 R(2)= -3.0282353  5.2450575  0.0000000  G(2)=  0.0000000  0.1906557  0.0000000
 R(3)=  0.0000000  0.0000000 38.4537822  G(3)=  0.0000000  0.0000000  0.0260052
 Unit cell volume ucvol=  1.2215435E+03 bohr^3
 Angles (23,13,12)=  9.00000000E+01  9.00000000E+01  1.20000000E+02 degrees

 getcut: wavevector=  0.0000  0.0000  0.0000  ngfft=  24  24 144
         ecut(hartree)=     17.000   => boxcut(ratio)=   2.01759
--------------------------------------------------------------------------------


================================================================================
 prteigrs : about to open file mos2_5o_DS2_EIG
 Non-SCF case, kpt    1 (  0.00000  0.00000  0.00000), residuals and eigenvalues=
  5.18E-13  7.48E-13  5.05E-13  6.74E-13  5.49E-13  9.32E-13  2.85E-13  5.31E-13
  3.70E-13  6.13E-13  4.59E-13  9.86E-13  6.38E-13  8.15E-13  5.03E-13  2.15E-09
 -6.6771E-01 -6.2731E-01 -3.5539E-01 -2.4362E-01 -2.4362E-01 -2.2150E-01
 -2.0335E-01 -2.0335E-01 -1.6195E-01 -5.4371E-02 -5.4371E-02 -5.0465E-02
 -5.0465E-02  4.3109E-02  5.5564E-02  7.4130E-02
  prteigrs : nnsclo,ikpt=   10    1 max resid (incl. the buffer)=  2.15383E-09
 Non-SCF case, kpt    2 (  0.01429  0.00000  0.00000), residuals and eigenvalues=
  7.06E-13  4.95E-13  2.64E-13  7.98E-13  2.26E-13  5.25E-13  5.86E-13  3.69E-13
  4.85E-13  8.61E-13  7.13E-13  3.64E-13  4.63E-13  3.30E-12  1.26E-12  1.25E-08
 -6.6760E-01 -6.2726E-01 -3.5527E-01 -2.4389E-01 -2.4352E-01 -2.2212E-01
 -2.0356E-01 -2.0292E-01 -1.6200E-01 -5.4640E-02 -5.4205E-02 -5.0842E-02
 -5.0590E-02  4.3380E-02  5.5713E-02  7.4392E-02
  prteigrs : nnsclo,ikpt=   10    2 max resid (incl. the buffer)=  1.24683E-08
 Non-SCF case, kpt    3 (  0.02857  0.00000  0.00000), residuals and eigenvalues=
  6.30E-13  4.05E-13  5.24E-13  3.57E-13  2.22E-13  8.85E-13  5.90E-13  6.96E-13
  8.66E-13  3.07E-13  3.94E-13  8.17E-13  9.54E-13  2.16E-11  5.23E-11  4.65E-09
 -6.6729E-01 -6.2709E-01 -3.5488E-01 -2.4466E-01 -2.4317E-01 -2.2383E-01
 -2.0412E-01 -2.0169E-01 -1.6210E-01 -5.5318E-02 -5.3657E-02 -5.1956E-02
 -5.0956E-02  4.4169E-02  5.6160E-02  7.5166E-02
  prteigrs : nnsclo,ikpt=   10    3 max resid (incl. the buffer)=  4.65093E-09
 Non-SCF case, kpt    4 (  0.04286  0.00000  0.00000), residuals and eigenvalues=
  6.39E-13  3.68E-13  8.30E-13  7.10E-13  1.79E-13  6.18E-13  3.94E-13  6.60E-13
  4.04E-13  6.48E-13  7.96E-13  7.74E-13  2.87E-13  1.74E-12  8.77E-11  2.17E-09
 -6.6676E-01 -6.2680E-01 -3.5423E-01 -2.4592E-01 -2.4259E-01 -2.2627E-01
 -2.0501E-01 -2.0006E-01 -1.6227E-01 -5.6377E-02 -5.3726E-02 -5.2755E-02
 -5.1556E-02  4.5417E-02  5.6902E-02  7.6410E-02
  prteigrs : nnsclo,ikpt=   10    4 max resid (incl. the buffer)=  2.16557E-09
 Non-SCF case, kpt    5 (  0.05714  0.00000  0.00000), residuals and eigenvalues=
  6.00E-13  7.65E-13  8.76E-13  2.68E-13  5.89E-13  3.59E-13  4.49E-13  7.28E-13
  7.79E-13  8.71E-13  7.35E-13  8.12E-13  6.89E-13  6.48E-11  2.86E-11  4.46E-08
 -6.6603E-01 -6.2640E-01 -3.5334E-01 -2.4765E-01 -2.4178E-01 -2.2918E-01
 -2.0626E-01 -1.9835E-01 -1.6257E-01 -5.7725E-02 -5.6043E-02 -5.2379E-02
 -5.1546E-02  4.7047E-02  5.7933E-02  7.8061E-02
  prteigrs : nnsclo,ikpt=   10    5 max resid (incl. the buffer)=  4.46038E-08
 Non-SCF case, kpt    6 (  0.07143  0.00000  0.00000), residuals and eigenvalues=
  4.74E-13  7.90E-13  3.17E-13  6.55E-13  3.69E-13  7.30E-13  3.33E-13  3.29E-13
  4.63E-13  9.68E-13  8.78E-13  4.51E-13  7.98E-13  8.45E-13  2.46E-11  7.70E-10
 -6.6509E-01 -6.2590E-01 -3.5220E-01 -2.4982E-01 -2.4074E-01 -2.3238E-01
 -2.0779E-01 -1.9672E-01 -1.6295E-01 -5.9234E-02 -5.8766E-02 -5.3402E-02
 -5.0025E-02  4.8983E-02  5.9249E-02  8.0045E-02
  prteigrs : nnsclo,ikpt=   10    6 max resid (incl. the buffer)=  7.70313E-10
 Non-SCF case, kpt    7 (  0.08571  0.00000  0.00000), residuals and eigenvalues=
  5.09E-13  8.20E-13  6.02E-13  7.21E-13  5.76E-13  3.98E-13  1.50E-13  7.23E-13
  3.21E-13  8.88E-13  3.94E-13  3.34E-13  9.97E-13  2.21E-11  4.77E-12  4.00E-10
 -6.6395E-01 -6.2528E-01 -3.5083E-01 -2.5238E-01 -2.3949E-01 -2.3579E-01
 -2.0961E-01 -1.9532E-01 -1.6348E-01 -6.1777E-02 -6.0785E-02 -5.4601E-02
 -4.8263E-02  5.1161E-02  6.0844E-02  8.2294E-02
  prteigrs : nnsclo,ikpt=   10    7 max resid (incl. the buffer)=  3.99854E-10
 Non-SCF case, kpt    8 (  0.10000  0.00000  0.00000), residuals and eigenvalues=
  5.51E-13  8.66E-13  7.46E-13  5.76E-13  6.55E-13  6.39E-13  3.84E-13  5.46E-13
  4.78E-13  4.68E-13  6.46E-13  4.69E-13  7.76E-13  1.88E-11  5.57E-11  3.04E-09
 -6.6262E-01 -6.2456E-01 -3.4926E-01 -2.5528E-01 -2.3936E-01 -2.3805E-01
 -2.1167E-01 -1.9424E-01 -1.6418E-01 -6.4915E-02 -6.2260E-02 -5.5976E-02
 -4.6290E-02  5.3537E-02  6.2713E-02  8.4757E-02
  prteigrs : nnsclo,ikpt=   10    8 max resid (incl. the buffer)=  3.04193E-09
 Non-SCF case, kpt    9 (  0.11429  0.00000  0.00000), residuals and eigenvalues=
  6.17E-13  8.76E-13  8.48E-13  2.78E-13  1.90E-13  4.17E-13  3.97E-13  7.62E-13
  5.41E-13  3.49E-13  8.91E-13  5.13E-13  6.59E-13  2.49E-10  4.85E-10  6.59E-08
 -6.6110E-01 -6.2374E-01 -3.4750E-01 -2.5848E-01 -2.4303E-01 -2.3640E-01
 -2.1392E-01 -1.9353E-01 -1.6510E-01 -6.8075E-02 -6.3503E-02 -5.7476E-02
 -4.4136E-02  5.6085E-02  6.4848E-02  8.7400E-02
  prteigrs : nnsclo,ikpt=   10    9 max resid (incl. the buffer)=  6.58593E-08
 Non-SCF case, kpt   10 (  0.12857  0.00000  0.00000), residuals and eigenvalues=
  6.87E-13  4.60E-13  4.88E-13  9.02E-13  9.85E-13  4.09E-13  6.88E-13  9.35E-13
  5.05E-13  7.95E-13  9.65E-13  2.25E-13  8.50E-13  8.22E-12  5.56E-12  9.38E-10
 -6.5939E-01 -6.2282E-01 -3.4557E-01 -2.6190E-01 -2.4678E-01 -2.3456E-01
 -2.1633E-01 -1.9323E-01 -1.6622E-01 -7.1114E-02 -6.4392E-02 -5.9078E-02
 -4.1850E-02  5.8795E-02  6.7245E-02  9.0213E-02
  prteigrs : nnsclo,ikpt=   10   10 max resid (incl. the buffer)=  9.37969E-10
 Non-SCF case, kpt   11 (  0.14286  0.00000  0.00000), residuals and eigenvalues=
  6.71E-13  5.41E-13  6.72E-13  8.38E-13  5.38E-13  5.37E-13  3.02E-13  5.32E-13
  7.85E-13  5.31E-13  8.74E-13  6.85E-13  6.51E-13  4.29E-13  1.67E-12  1.73E-10
 -6.5751E-01 -6.2180E-01 -3.4351E-01 -2.6551E-01 -2.5062E-01 -2.3252E-01
 -2.1888E-01 -1.9338E-01 -1.6758E-01 -7.3934E-02 -6.4882E-02 -6.0740E-02
 -3.9461E-02  6.1661E-02  6.9900E-02  9.3194E-02
  prteigrs : nnsclo,ikpt=   10   11 max resid (incl. the buffer)=  1.72583E-10
 Non-SCF case, kpt   12 (  0.15714  0.00000  0.00000), residuals and eigenvalues=
  7.65E-13  7.21E-13  3.61E-13  2.66E-13  5.04E-13  5.56E-13  6.42E-13  9.70E-13
  7.53E-13  6.11E-13  3.50E-13  6.34E-13  7.87E-13  2.84E-11  5.26E-12  2.97E-09
 -6.5546E-01 -6.2070E-01 -3.4137E-01 -2.6924E-01 -2.5453E-01 -2.3034E-01
 -2.2151E-01 -1.9396E-01 -1.6922E-01 -7.6471E-02 -6.4920E-02 -6.2451E-02
 -3.7036E-02  6.4677E-02  7.2802E-02  9.6346E-02
  prteigrs : nnsclo,ikpt=   10   12 max resid (incl. the buffer)=  2.96743E-09
 Non-SCF case, kpt   13 (  0.17143  0.00000  0.00000), residuals and eigenvalues=
  8.49E-13  7.18E-13  3.52E-13  4.62E-13  6.48E-13  6.58E-13  3.93E-13  7.04E-13
  4.38E-13  6.26E-13  3.02E-13  4.76E-13  9.01E-13  3.61E-11  8.26E-12  1.95E-09
 -6.5325E-01 -6.1951E-01 -3.3921E-01 -2.7302E-01 -2.5852E-01 -2.2803E-01
 -2.2421E-01 -1.9494E-01 -1.7113E-01 -7.8639E-02 -6.4471E-02 -6.4197E-02
 -3.4597E-02  6.7840E-02  7.5945E-02  9.9675E-02
  prteigrs : nnsclo,ikpt=   10   13 max resid (incl. the buffer)=  1.94574E-09
 Non-SCF case, kpt   14 (  0.18571  0.00000  0.00000), residuals and eigenvalues=
  9.71E-13  6.93E-13  5.04E-13  9.23E-13  6.90E-13  2.44E-13  4.07E-13  8.61E-13
  3.41E-13  6.08E-13  3.68E-13  7.06E-13  3.90E-13  2.17E-11  7.35E-11  5.38E-09
 -6.5089E-01 -6.1825E-01 -3.3707E-01 -2.7676E-01 -2.6255E-01 -2.2695E-01
 -2.2559E-01 -1.9628E-01 -1.7328E-01 -8.0390E-02 -6.5928E-02 -6.3512E-02
 -3.2172E-02  7.1148E-02  7.9321E-02  1.0319E-01
  prteigrs : nnsclo,ikpt=   10   14 max resid (incl. the buffer)=  5.37841E-09
 Non-SCF case, kpt   15 (  0.20000  0.00000  0.00000), residuals and eigenvalues=
  5.23E-13  3.94E-13  5.57E-13  4.92E-13  7.82E-13  2.71E-13  2.18E-13  5.83E-13
  6.32E-13  8.61E-13  4.80E-13  9.71E-13  8.01E-13  1.20E-11  9.05E-12  7.77E-09
 -6.4840E-01 -6.1691E-01 -3.3506E-01 -2.8038E-01 -2.6664E-01 -2.2971E-01
 -2.2304E-01 -1.9790E-01 -1.7561E-01 -8.1672E-02 -6.7614E-02 -6.2095E-02
 -2.9802E-02  7.4593E-02  8.2919E-02  1.0688E-01
  prteigrs : nnsclo,ikpt=   10   15 max resid (incl. the buffer)=  7.76583E-09
 Non-SCF case, kpt   16 (  0.21429  0.00000  0.00000), residuals and eigenvalues=
  5.52E-13  5.12E-13  6.68E-13  6.02E-13  7.41E-13  5.95E-13  9.26E-13  4.70E-13
  9.80E-13  3.17E-13  4.33E-13  4.38E-13  4.57E-13  1.66E-11  4.91E-12  1.47E-09
 -6.4578E-01 -6.1551E-01 -3.3328E-01 -2.8381E-01 -2.7076E-01 -2.3244E-01
 -2.2041E-01 -1.9976E-01 -1.7808E-01 -8.2535E-02 -6.9246E-02 -6.0234E-02
 -2.7487E-02  7.8160E-02  8.6724E-02  1.1076E-01
  prteigrs : nnsclo,ikpt=   10   16 max resid (incl. the buffer)=  1.46513E-09
 Non-SCF case, kpt   17 (  0.22857  0.00000  0.00000), residuals and eigenvalues=
  6.95E-13  5.28E-13  4.30E-13  5.03E-13  3.53E-13  2.67E-13  2.16E-13  5.70E-13
  4.15E-13  3.33E-13  8.74E-13  7.23E-13  1.40E-12  9.48E-11  1.54E-10  2.27E-08
 -6.4305E-01 -6.1406E-01 -3.3185E-01 -2.8691E-01 -2.7493E-01 -2.3514E-01
 -2.1771E-01 -2.0178E-01 -1.8060E-01 -8.2957E-02 -7.0773E-02 -5.8017E-02
 -2.5259E-02  8.1833E-02  9.0719E-02  1.1482E-01
  prteigrs : nnsclo,ikpt=   10   17 max resid (incl. the buffer)=  2.27034E-08
 Non-SCF case, kpt   18 (  0.24286  0.00000  0.00000), residuals and eigenvalues=
  5.88E-13  5.77E-13  2.95E-13  5.04E-13  7.08E-13  8.78E-13  6.44E-13  2.55E-13
  9.33E-13  5.30E-13  6.92E-13  4.89E-13  6.45E-13  1.65E-11  1.26E-11  1.45E-09
 -6.4023E-01 -6.1256E-01 -3.3093E-01 -2.8958E-01 -2.7911E-01 -2.3777E-01
 -2.1496E-01 -2.0389E-01 -1.8308E-01 -8.2967E-02 -7.2195E-02 -5.5473E-02
 -2.3125E-02  8.5589E-02  9.4884E-02  1.1904E-01
  prteigrs : nnsclo,ikpt=   10   18 max resid (incl. the buffer)=  1.44523E-09
 Non-SCF case, kpt   19 (  0.25714  0.00000  0.00000), residuals and eigenvalues=
  9.23E-13  6.55E-13  3.11E-13  6.81E-13  7.10E-13  1.81E-13  8.00E-13  2.60E-13
  9.99E-13  6.83E-13  8.41E-13  4.36E-13  3.18E-12  4.34E-10  3.24E-10  5.20E-08
 -6.3734E-01 -6.1103E-01 -3.3065E-01 -2.9172E-01 -2.8330E-01 -2.4033E-01
 -2.1220E-01 -2.0604E-01 -1.8542E-01 -8.2616E-02 -7.3497E-02 -5.2707E-02
 -2.1084E-02  8.9398E-02  9.9189E-02  1.2340E-01
  prteigrs : nnsclo,ikpt=   10   19 max resid (incl. the buffer)=  5.19918E-08
 Non-SCF case, kpt   20 (  0.27143  0.00000  0.00000), residuals and eigenvalues=
  5.70E-13  6.39E-13  5.11E-13  6.64E-13  2.64E-13  3.45E-13  4.07E-13  9.50E-13
  5.05E-13  9.72E-13  5.55E-13  6.19E-13  3.97E-13  2.53E-11  3.28E-10  1.96E-07
 -6.3439E-01 -6.0947E-01 -3.3109E-01 -2.9327E-01 -2.8748E-01 -2.4283E-01
 -2.0949E-01 -2.0817E-01 -1.8753E-01 -8.1928E-02 -7.4681E-02 -4.9760E-02
 -1.9212E-02  9.3219E-02  1.0360E-01  1.2781E-01
  prteigrs : nnsclo,ikpt=   10   20 max resid (incl. the buffer)=  1.95537E-07
 Non-SCF case, kpt   21 (  0.28571  0.00000  0.00000), residuals and eigenvalues=
  9.00E-13  9.53E-13  5.49E-13  3.89E-13  4.84E-13  2.72E-13  9.66E-13  5.15E-13
  4.05E-13  4.98E-13  5.76E-13  4.18E-13  4.12E-12  9.00E-10  6.45E-09  7.82E-05
 -6.3141E-01 -6.0791E-01 -3.3225E-01 -2.9426E-01 -2.9162E-01 -2.4522E-01
 -2.1024E-01 -2.0681E-01 -1.8931E-01 -8.0921E-02 -7.5670E-02 -4.6668E-02
 -1.7452E-02  9.7010E-02  1.0806E-01  1.3219E-01
  prteigrs : nnsclo,ikpt=   10   21 max resid (incl. the buffer)=  7.81744E-05
 Non-SCF case, kpt   22 (  0.30000  0.00000  0.00000), residuals and eigenvalues=
  5.74E-13  6.46E-13  5.27E-13  6.83E-13  5.50E-13  3.19E-13  6.91E-13  6.36E-13
  5.47E-13  7.46E-13  8.80E-13  5.15E-13  3.29E-12  3.23E-09  2.41E-09  1.43E-05
 -6.2841E-01 -6.0634E-01 -3.3405E-01 -2.9569E-01 -2.9483E-01 -2.4751E-01
 -2.1222E-01 -2.0419E-01 -1.9068E-01 -7.9685E-02 -7.6522E-02 -4.3491E-02
 -1.5834E-02  1.0070E-01  1.1249E-01  1.3393E-01
  prteigrs : nnsclo,ikpt=   10   22 max resid (incl. the buffer)=  1.43447E-05
 Non-SCF case, kpt   23 (  0.31429  0.00000  0.00000), residuals and eigenvalues=
  8.05E-13  4.99E-13  5.23E-13  5.58E-13  8.20E-13  5.82E-13  9.70E-13  7.00E-13
  2.08E-13  4.37E-13  7.58E-13  9.99E-13  9.04E-13  2.03E-09  3.47E-08  1.68E-05
 -6.2544E-01 -6.0479E-01 -3.3636E-01 -2.9968E-01 -2.9512E-01 -2.4968E-01
 -2.1410E-01 -2.0168E-01 -1.9160E-01 -7.8281E-02 -7.7216E-02 -4.0325E-02
 -1.4368E-02  1.0412E-01  1.1680E-01  1.3093E-01
  prteigrs : nnsclo,ikpt=   10   23 max resid (incl. the buffer)=  1.68178E-05
 Non-SCF case, kpt   24 (  0.32857  0.00000  0.00000), residuals and eigenvalues=
  6.85E-13  5.42E-13  5.64E-13  3.44E-13  3.89E-13  2.29E-13  2.63E-13  3.22E-13
  4.36E-13  6.76E-13  4.30E-13  3.12E-13  4.47E-12  4.26E-11  2.87E-09  8.16E-08
 -6.2249E-01 -6.0327E-01 -3.3900E-01 -3.0354E-01 -2.9529E-01 -2.5172E-01
 -2.1584E-01 -1.9928E-01 -1.9200E-01 -7.7712E-02 -7.6703E-02 -3.7178E-02
 -1.3034E-02  1.0699E-01  1.2082E-01  1.2588E-01
  prteigrs : nnsclo,ikpt=   10   24 max resid (incl. the buffer)=  8.16293E-08
 Non-SCF case, kpt   25 (  0.34286  0.00000  0.00000), residuals and eigenvalues=
  3.24E-13  8.75E-13  2.61E-13  5.69E-13  3.10E-13  6.57E-13  8.07E-13  4.39E-13
  6.88E-13  2.22E-13  4.49E-13  8.39E-13  5.81E-12  5.31E-09  1.54E-07  9.47E-09
 -6.1961E-01 -6.0179E-01 -3.4182E-01 -3.0722E-01 -2.9546E-01 -2.5362E-01
 -2.1743E-01 -1.9702E-01 -1.9189E-01 -7.8034E-02 -7.4975E-02 -3.4081E-02
 -1.1826E-02  1.0831E-01  1.2153E-01  1.2434E-01
  prteigrs : nnsclo,ikpt=   10   25 max resid (incl. the buffer)=  1.53733E-07
 Non-SCF case, kpt   26 (  0.35714  0.00000  0.00000), residuals and eigenvalues=
  3.40E-13  4.23E-13  4.41E-13  7.65E-13  2.71E-13  5.13E-13  4.40E-13  6.75E-13
  7.35E-13  7.22E-13  7.97E-13  3.19E-13  3.33E-12  4.19E-08  7.56E-07  8.65E-08
 -6.1683E-01 -6.0037E-01 -3.4471E-01 -3.1073E-01 -2.9570E-01 -2.5538E-01
 -2.1888E-01 -1.9492E-01 -1.9131E-01 -7.8208E-02 -7.3142E-02 -3.1137E-02
 -1.0741E-02  1.0602E-01  1.2031E-01  1.2709E-01
  prteigrs : nnsclo,ikpt=   10   26 max resid (incl. the buffer)=  7.55998E-07
 Non-SCF case, kpt   27 (  0.37143  0.00000  0.00000), residuals and eigenvalues=
  2.91E-13  4.49E-13  8.92E-13  4.51E-13  3.37E-13  2.12E-13  7.93E-13  4.38E-13
  9.87E-13  5.99E-13  7.19E-13  2.15E-13  1.85E-12  2.91E-09  3.54E-08  4.17E-08
 -6.1418E-01 -5.9903E-01 -3.4759E-01 -3.1403E-01 -2.9605E-01 -2.5700E-01
 -2.2019E-01 -1.9300E-01 -1.9033E-01 -7.8282E-02 -7.1270E-02 -2.8398E-02
 -9.8069E-03  1.0071E-01  1.2184E-01  1.2889E-01
  prteigrs : nnsclo,ikpt=   10   27 max resid (incl. the buffer)=  4.17358E-08
 Non-SCF case, kpt   28 (  0.38571  0.00000  0.00000), residuals and eigenvalues=
  5.10E-13  8.83E-13  8.68E-13  5.85E-13  3.02E-13  3.96E-13  8.43E-13  8.26E-13
  3.94E-13  8.98E-13  2.87E-13  3.84E-13  1.37E-12  5.04E-09  1.38E-07  3.42E-08
 -6.1168E-01 -5.9776E-01 -3.5035E-01 -3.1706E-01 -2.9651E-01 -2.5845E-01
 -2.2134E-01 -1.9126E-01 -1.8903E-01 -7.8183E-02 -6.9333E-02 -2.5826E-02
 -8.9643E-03  9.4493E-02  1.2422E-01  1.2977E-01
  prteigrs : nnsclo,ikpt=   10   28 max resid (incl. the buffer)=  1.37916E-07
 Non-SCF case, kpt   29 (  0.40000  0.00000  0.00000), residuals and eigenvalues=
  4.60E-13  8.74E-13  5.32E-13  3.33E-13  8.39E-13  9.35E-13  8.06E-13  5.28E-13
  3.81E-13  8.64E-13  6.92E-13  8.85E-13  4.99E-12  9.57E-10  1.33E-07  4.32E-07
 -6.0938E-01 -5.9661E-01 -3.5296E-01 -3.1982E-01 -2.9704E-01 -2.5974E-01
 -2.2235E-01 -1.8974E-01 -1.8751E-01 -7.8047E-02 -6.7442E-02 -2.3502E-02
 -8.2445E-03  8.8211E-02  1.2671E-01  1.3000E-01
  prteigrs : nnsclo,ikpt=   10   29 max resid (incl. the buffer)=  4.31672E-07
 Non-SCF case, kpt   30 (  0.41429  0.00000  0.00000), residuals and eigenvalues=
  9.49E-13  9.20E-13  5.03E-13  7.55E-13  4.51E-13  7.15E-13  4.72E-13  3.75E-13
  4.25E-13  7.05E-13  7.87E-13  4.20E-13  7.71E-12  1.42E-10  3.99E-08  4.48E-07
 -6.0731E-01 -5.9557E-01 -3.5533E-01 -3.2228E-01 -2.9761E-01 -2.6088E-01
 -2.2321E-01 -1.8841E-01 -1.8588E-01 -7.7826E-02 -6.5598E-02 -2.1446E-02
 -7.6458E-03  8.2224E-02  1.2913E-01  1.2988E-01
  prteigrs : nnsclo,ikpt=   10   30 max resid (incl. the buffer)=  4.48411E-07
 Non-SCF case, kpt   31 (  0.42857  0.00000  0.00000), residuals and eigenvalues=
  4.80E-13  6.19E-13  6.75E-13  6.15E-13  7.37E-13  5.71E-13  9.35E-13  3.68E-13
  3.58E-13  8.42E-13  3.49E-13  2.19E-13  3.37E-13  7.26E-11  2.20E-07  9.77E-09
 -6.0548E-01 -5.9467E-01 -3.5742E-01 -3.2439E-01 -2.9817E-01 -2.6184E-01
 -2.2393E-01 -1.8729E-01 -1.8427E-01 -7.7546E-02 -6.3853E-02 -1.9680E-02
 -7.1423E-03  7.6771E-02  1.2963E-01  1.3137E-01
  prteigrs : nnsclo,ikpt=   10   31 max resid (incl. the buffer)=  2.19992E-07
 Non-SCF case, kpt   32 (  0.44286  0.00000  0.00000), residuals and eigenvalues=
  4.69E-13  6.30E-13  3.88E-13  9.36E-13  5.68E-13  5.75E-13  3.09E-13  7.61E-13
  5.00E-13  4.49E-13  7.60E-13  9.34E-13  1.81E-12  8.14E-12  1.25E-08  2.22E-07
 -6.0395E-01 -5.9391E-01 -3.5920E-01 -3.2616E-01 -2.9870E-01 -2.6263E-01
 -2.2451E-01 -1.8637E-01 -1.8278E-01 -7.7293E-02 -6.2290E-02 -1.8215E-02
 -6.7314E-03  7.1999E-02  1.2937E-01  1.3334E-01
  prteigrs : nnsclo,ikpt=   10   32 max resid (incl. the buffer)=  2.22249E-07
 Non-SCF case, kpt   33 (  0.45714  0.00000  0.00000), residuals and eigenvalues=
  4.45E-13  4.27E-13  6.78E-13  5.41E-13  2.80E-13  8.24E-13  2.62E-13  6.07E-13
  7.22E-13  8.07E-13  7.27E-13  8.96E-13  2.17E-12  2.84E-11  4.33E-08  1.99E-07
 -6.0272E-01 -5.9331E-01 -3.6062E-01 -3.2755E-01 -2.9915E-01 -2.6324E-01
 -2.2496E-01 -1.8567E-01 -1.8150E-01 -7.7046E-02 -6.0979E-02 -1.7067E-02
 -6.4125E-03  6.8094E-02  1.2917E-01  1.3497E-01
  prteigrs : nnsclo,ikpt=   10   33 max resid (incl. the buffer)=  1.98533E-07
 Non-SCF case, kpt   34 (  0.47143  0.00000  0.00000), residuals and eigenvalues=
  8.71E-13  6.25E-13  8.91E-13  3.15E-13  4.52E-13  6.76E-13  2.82E-13  9.05E-13
  6.78E-13  6.09E-13  4.26E-13  7.21E-13  1.42E-12  1.69E-10  4.19E-07  9.29E-07
 -6.0184E-01 -5.9287E-01 -3.6166E-01 -3.2856E-01 -2.9949E-01 -2.6368E-01
 -2.2528E-01 -1.8517E-01 -1.8053E-01 -7.6889E-02 -6.0016E-02 -1.6256E-02
 -6.1907E-03  6.5176E-02  1.2902E-01  1.3619E-01
  prteigrs : nnsclo,ikpt=   10   34 max resid (incl. the buffer)=  9.29203E-07
 Non-SCF case, kpt   35 (  0.48571  0.00000  0.00000), residuals and eigenvalues=
  7.13E-13  3.40E-13  8.50E-13  4.64E-13  2.45E-13  2.09E-13  5.47E-13  3.35E-13
  9.96E-13  3.58E-13  7.45E-13  9.54E-13  7.94E-12  4.42E-12  6.85E-07  1.20E-06
 -6.0129E-01 -5.9261E-01 -3.6229E-01 -3.2917E-01 -2.9970E-01 -2.6395E-01
 -2.2547E-01 -1.8487E-01 -1.7991E-01 -7.6770E-02 -5.9368E-02 -1.5752E-02
 -6.0586E-03  6.3385E-02  1.2894E-01  1.3697E-01
  prteigrs : nnsclo,ikpt=   10   35 max resid (incl. the buffer)=  1.20266E-06
 Non-SCF case, kpt   36 (  0.50000  0.00000  0.00000), residuals and eigenvalues=
  5.44E-13  5.18E-13  4.55E-13  4.54E-13  3.77E-13  4.41E-13  3.14E-13  3.78E-13
  8.14E-13  3.31E-13  4.00E-13  7.61E-13  6.71E-13  2.30E-11  1.08E-08  2.99E-08
 -6.0111E-01 -5.9252E-01 -3.6250E-01 -3.2937E-01 -2.9978E-01 -2.6404E-01
 -2.2553E-01 -1.8477E-01 -1.7971E-01 -7.6764E-02 -5.9146E-02 -1.5593E-02
 -6.0238E-03  6.2776E-02  1.2892E-01  1.3722E-01
  prteigrs : nnsclo,ikpt=   10   36 max resid (incl. the buffer)=  2.98732E-08
 Non-SCF case, kpt   37 (  0.49167  0.01667  0.00000), residuals and eigenvalues=
  6.82E-13  3.71E-13  3.96E-13  8.55E-13  4.62E-13  9.36E-13  4.03E-13  6.13E-13
  2.81E-13  3.11E-13  9.23E-13  3.26E-13  2.74E-12  2.91E-11  3.72E-07  2.25E-06
 -6.0106E-01 -5.9249E-01 -3.6236E-01 -3.2944E-01 -2.9972E-01 -2.6413E-01
 -2.2550E-01 -1.8675E-01 -1.7825E-01 -7.6669E-02 -5.9096E-02 -1.5384E-02
 -6.5165E-03  6.2959E-02  1.2976E-01  1.3776E-01
  prteigrs : nnsclo,ikpt=   10   37 max resid (incl. the buffer)=  2.24583E-06
 Non-SCF case, kpt   38 (  0.48333  0.03333  0.00000), residuals and eigenvalues=
  8.95E-13  6.13E-13  6.41E-13  3.32E-13  5.91E-13  2.67E-13  6.23E-13  9.00E-13
  3.45E-13  8.32E-13  7.52E-13  9.18E-13  6.06E-13  5.99E-11  1.48E-06  2.47E-06
 -6.0093E-01 -5.9238E-01 -3.6192E-01 -3.2964E-01 -2.9957E-01 -2.6443E-01
 -2.2540E-01 -1.9059E-01 -1.7600E-01 -7.6527E-02 -5.8921E-02 -1.4799E-02
 -7.9837E-03  6.3486E-02  1.3222E-01  1.3932E-01
  prteigrs : nnsclo,ikpt=   10   38 max resid (incl. the buffer)=  2.47238E-06
 Non-SCF case, kpt   39 (  0.47500  0.05000  0.00000), residuals and eigenvalues=
  5.16E-13  8.41E-13  6.72E-13  5.05E-13  3.06E-13  4.64E-13  3.79E-13  7.09E-13
  2.20E-13  9.35E-13  3.95E-13  4.13E-13  7.36E-13  1.42E-12  3.05E-06  2.65E-07
 -6.0069E-01 -5.9221E-01 -3.6119E-01 -3.2998E-01 -2.9929E-01 -2.6484E-01
 -2.2527E-01 -1.9519E-01 -1.7395E-01 -7.6278E-02 -5.8567E-02 -1.3959E-02
 -1.0112E-02  6.4344E-02  1.3619E-01  1.4189E-01
  prteigrs : nnsclo,ikpt=   10   39 max resid (incl. the buffer)=  3.04979E-06
 Non-SCF case, kpt   40 (  0.46667  0.06667  0.00000), residuals and eigenvalues=
  4.30E-13  5.58E-13  3.30E-13  9.95E-13  3.53E-13  8.66E-13  3.79E-13  3.93E-13
  5.46E-13  9.91E-13  6.31E-13  9.94E-13  3.04E-13  3.78E-12  3.02E-08  3.43E-06
 -6.0036E-01 -5.9197E-01 -3.6017E-01 -3.3046E-01 -2.9892E-01 -2.6536E-01
 -2.2513E-01 -2.0037E-01 -1.7222E-01 -7.6061E-02 -5.8026E-02 -1.4245E-02
 -1.1429E-02  6.5500E-02  1.4145E-01  1.4543E-01
  prteigrs : nnsclo,ikpt=   10   40 max resid (incl. the buffer)=  3.43245E-06
 Non-SCF case, kpt   41 (  0.45833  0.08333  0.00000), residuals and eigenvalues=
  8.91E-13  6.44E-13  3.72E-13  6.73E-13  3.48E-13  6.13E-13  3.27E-13  5.16E-13
  4.03E-13  5.14E-13  5.68E-13  8.24E-13  5.04E-13  1.77E-12  1.83E-06  1.76E-06
 -5.9996E-01 -5.9168E-01 -3.5888E-01 -3.3108E-01 -2.9848E-01 -2.6592E-01
 -2.2501E-01 -2.0603E-01 -1.7079E-01 -7.5971E-02 -5.7304E-02 -1.7280E-02
 -1.0132E-02  6.6927E-02  1.4780E-01  1.4979E-01
  prteigrs : nnsclo,ikpt=   10   41 max resid (incl. the buffer)=  1.83405E-06
 Non-SCF case, kpt   42 (  0.45000  0.10000  0.00000), residuals and eigenvalues=
  7.52E-13  9.66E-13  7.07E-13  9.89E-13  7.24E-13  4.67E-13  6.51E-13  5.81E-13
  9.04E-13  3.44E-13  6.90E-13  7.67E-13  8.53E-13  3.86E-12  5.58E-08  2.50E-05
 -5.9948E-01 -5.9132E-01 -3.5731E-01 -3.3184E-01 -2.9796E-01 -2.6647E-01
 -2.2497E-01 -2.1209E-01 -1.6958E-01 -7.6051E-02 -5.6276E-02 -2.0998E-02
 -8.1559E-03  6.8586E-02  1.5490E-01  1.5515E-01
  prteigrs : nnsclo,ikpt=   10   42 max resid (incl. the buffer)=  2.50169E-05
 Non-SCF case, kpt   43 (  0.44167  0.11667  0.00000), residuals and eigenvalues=
  7.75E-13  7.84E-13  7.13E-13  7.49E-13  2.71E-13  5.21E-13  6.30E-13  6.20E-13
  9.49E-13  6.64E-13  3.50E-13  2.84E-13  4.68E-13  1.21E-11  1.86E-06  1.04E-05
 -5.9892E-01 -5.9092E-01 -3.5548E-01 -3.3274E-01 -2.9737E-01 -2.6693E-01
 -2.2503E-01 -2.1847E-01 -1.6850E-01 -7.6335E-02 -5.4944E-02 -2.4894E-02
 -5.8685E-03  7.0452E-02  1.6059E-01  1.6265E-01
  prteigrs : nnsclo,ikpt=   10   43 max resid (incl. the buffer)=  1.03905E-05
 Non-SCF case, kpt   44 (  0.43333  0.13333  0.00000), residuals and eigenvalues=
  7.77E-13  7.84E-13  6.29E-13  6.04E-13  3.95E-13  3.35E-13  8.76E-13  7.14E-13
  6.17E-13  9.09E-13  3.59E-13  9.75E-13  3.78E-13  1.42E-11  6.32E-06  1.03E-06
 -5.9831E-01 -5.9048E-01 -3.5339E-01 -3.3378E-01 -2.9674E-01 -2.6729E-01
 -2.2522E-01 -2.2510E-01 -1.6754E-01 -7.6947E-02 -5.3346E-02 -2.8806E-02
 -3.3888E-03  7.2504E-02  1.6658E-01  1.6954E-01
  prteigrs : nnsclo,ikpt=   10   44 max resid (incl. the buffer)=  6.31930E-06
 Non-SCF case, kpt   45 (  0.42500  0.15000  0.00000), residuals and eigenvalues=
  6.07E-13  4.67E-13  6.51E-13  5.92E-13  8.32E-13  8.51E-13  7.70E-13  8.32E-13
  8.36E-13  5.89E-13  5.50E-13  7.46E-13  9.08E-13  9.15E-12  1.12E-05  1.13E-05
 -5.9765E-01 -5.9000E-01 -3.5105E-01 -3.3494E-01 -2.9609E-01 -2.6750E-01
 -2.3189E-01 -2.2557E-01 -1.6660E-01 -7.7823E-02 -5.1471E-02 -3.2641E-02
 -7.6876E-04  7.4728E-02  1.7229E-01  1.7378E-01
  prteigrs : nnsclo,ikpt=   10   45 max resid (incl. the buffer)=  1.13100E-05
 Non-SCF case, kpt   46 (  0.41667  0.16667  0.00000), residuals and eigenvalues=
  7.90E-13  6.31E-13  6.26E-13  3.91E-13  9.73E-13  2.58E-13  7.72E-13  4.14E-13
  1.69E-13  8.84E-13  9.71E-13  6.32E-13  2.93E-13  1.43E-12  5.77E-06  6.12E-06
 -5.9696E-01 -5.8951E-01 -3.4849E-01 -3.3619E-01 -2.9545E-01 -2.6752E-01
 -2.3876E-01 -2.2609E-01 -1.6564E-01 -7.8982E-02 -4.9440E-02 -3.6239E-02
  1.9016E-03  7.7116E-02  1.7495E-01  1.7605E-01
  prteigrs : nnsclo,ikpt=   10   46 max resid (incl. the buffer)=  6.12220E-06
 Non-SCF case, kpt   47 (  0.40833  0.18333  0.00000), residuals and eigenvalues=
  7.44E-13  5.77E-13  4.33E-13  2.55E-13  7.70E-13  6.62E-13  6.98E-13  2.94E-13
  2.79E-13  4.86E-13  2.97E-13  7.45E-13  4.24E-13  4.17E-13  4.62E-05  1.00E-05
 -5.9624E-01 -5.8900E-01 -3.4571E-01 -3.3750E-01 -2.9483E-01 -2.6735E-01
 -2.4562E-01 -2.2678E-01 -1.6464E-01 -8.0356E-02 -4.7254E-02 -3.9563E-02
  4.5621E-03  7.9666E-02  1.7068E-01  1.7792E-01
  prteigrs : nnsclo,ikpt=   10   47 max resid (incl. the buffer)=  4.61703E-05
 Non-SCF case, kpt   48 (  0.40000  0.20000  0.00000), residuals and eigenvalues=
  8.81E-13  8.72E-13  2.69E-13  9.00E-13  3.61E-13  8.35E-13  8.35E-13  7.23E-13
  5.13E-13  4.60E-13  6.26E-13  6.08E-13  8.18E-13  6.05E-13  7.41E-08  1.25E-06
 -5.9552E-01 -5.8850E-01 -3.4273E-01 -3.3885E-01 -2.9430E-01 -2.6700E-01
 -2.5237E-01 -2.2764E-01 -1.6356E-01 -8.1907E-02 -4.4976E-02 -4.2613E-02
  7.1245E-03  8.2353E-02  1.6295E-01  1.7961E-01
  prteigrs : nnsclo,ikpt=   10   48 max resid (incl. the buffer)=  1.24830E-06
 Non-SCF case, kpt   49 (  0.39167  0.21667  0.00000), residuals and eigenvalues=
  6.36E-13  5.86E-13  3.05E-13  5.21E-13  5.61E-13  4.24E-13  8.52E-13  4.48E-13
  4.24E-13  5.65E-13  3.17E-13  6.38E-13  3.14E-13  4.94E-13  2.30E-07  2.70E-05
 -5.9482E-01 -5.8800E-01 -3.4018E-01 -3.3958E-01 -2.9388E-01 -2.6646E-01
 -2.5891E-01 -2.2864E-01 -1.6240E-01 -8.3622E-02 -4.5253E-02 -4.2712E-02
  9.5456E-03  8.5204E-02  1.5503E-01  1.8142E-01
  prteigrs : nnsclo,ikpt=   10   49 max resid (incl. the buffer)=  2.70023E-05
 Non-SCF case, kpt   50 (  0.38333  0.23333  0.00000), residuals and eigenvalues=
  5.20E-13  6.83E-13  2.74E-13  4.97E-13  2.99E-13  2.07E-13  4.24E-13  5.12E-13
  9.74E-13  2.12E-13  8.71E-13  6.87E-13  8.14E-13  7.17E-13  8.10E-09  9.63E-06
 -5.9414E-01 -5.8752E-01 -3.4146E-01 -3.3629E-01 -2.9368E-01 -2.6578E-01
 -2.6506E-01 -2.2977E-01 -1.6117E-01 -8.5370E-02 -4.7505E-02 -4.0494E-02
  1.1778E-02  8.8205E-02  1.4720E-01  1.8310E-01
  prteigrs : nnsclo,ikpt=   10   50 max resid (incl. the buffer)=  9.62521E-06
 Non-SCF case, kpt   51 (  0.37500  0.25000  0.00000), residuals and eigenvalues=
  6.46E-13  6.03E-13  2.61E-13  9.13E-13  8.24E-13  2.68E-13  8.09E-13  4.54E-13
  3.08E-13  4.03E-13  3.66E-13  9.46E-13  5.62E-13  5.83E-13  4.50E-10  4.58E-06
 -5.9351E-01 -5.8709E-01 -3.4266E-01 -3.3288E-01 -2.9384E-01 -2.7062E-01
 -2.6500E-01 -2.3096E-01 -1.5993E-01 -8.7107E-02 -4.9386E-02 -3.8412E-02
  1.3727E-02  9.1319E-02  1.3968E-01  1.8477E-01
  prteigrs : nnsclo,ikpt=   10   51 max resid (incl. the buffer)=  4.58371E-06
 Non-SCF case, kpt   52 (  0.36667  0.26667  0.00000), residuals and eigenvalues=
  6.62E-13  3.39E-13  2.93E-13  5.65E-13  2.71E-13  3.16E-13  8.95E-13  4.34E-13
  7.53E-13  2.42E-13  5.53E-13  3.68E-13  5.47E-13  1.58E-12  2.01E-10  3.80E-07
 -5.9294E-01 -5.8671E-01 -3.4371E-01 -3.2944E-01 -2.9459E-01 -2.7526E-01
 -2.6416E-01 -2.3215E-01 -1.5870E-01 -8.8725E-02 -5.0827E-02 -3.6523E-02
  1.5393E-02  9.4557E-02  1.3265E-01  1.8636E-01
  prteigrs : nnsclo,ikpt=   10   52 max resid (incl. the buffer)=  3.80294E-07
 Non-SCF case, kpt   53 (  0.35833  0.28333  0.00000), residuals and eigenvalues=
  3.77E-13  4.61E-13  2.47E-13  4.34E-13  4.64E-13  3.27E-13  6.27E-13  2.51E-13
  5.40E-13  2.08E-13  6.57E-13  6.85E-13  5.37E-13  4.37E-13  1.31E-11  2.12E-07
 -5.9246E-01 -5.8638E-01 -3.4458E-01 -3.2607E-01 -2.9615E-01 -2.7864E-01
 -2.6335E-01 -2.3326E-01 -1.5757E-01 -9.0160E-02 -5.1888E-02 -3.4911E-02
  1.6723E-02  9.7874E-02  1.2623E-01  1.8778E-01
  prteigrs : nnsclo,ikpt=   10   53 max resid (incl. the buffer)=  2.12478E-07
 Non-SCF case, kpt   54 (  0.35000  0.30000  0.00000), residuals and eigenvalues=
  4.41E-13  5.26E-13  3.87E-13  4.14E-13  3.16E-13  5.03E-13  4.88E-13  3.78E-13
  4.67E-13  5.69E-13  9.92E-13  6.22E-13  5.33E-13  4.79E-13  1.22E-11  1.22E-08
 -5.9210E-01 -5.8614E-01 -3.4524E-01 -3.2298E-01 -2.9838E-01 -2.8064E-01
 -2.6264E-01 -2.3419E-01 -1.5665E-01 -9.1290E-02 -5.2620E-02 -3.3655E-02
  1.7679E-02  1.0117E-01  1.2061E-01  1.8893E-01
  prteigrs : nnsclo,ikpt=   10   54 max resid (incl. the buffer)=  1.22439E-08
 Non-SCF case, kpt   55 (  0.34167  0.31667  0.00000), residuals and eigenvalues=
  4.56E-13  5.03E-13  2.47E-13  4.46E-13  5.22E-13  2.79E-13  5.93E-13  2.52E-13
  5.72E-13  4.38E-13  2.96E-13  8.30E-13  6.71E-13  3.86E-12  4.32E-13  1.99E-07
 -5.9186E-01 -5.8598E-01 -3.4566E-01 -3.2060E-01 -3.0053E-01 -2.8157E-01
 -2.6216E-01 -2.3483E-01 -1.5605E-01 -9.2036E-02 -5.3029E-02 -3.2867E-02
  1.8243E-02  1.0413E-01  1.1618E-01  1.8969E-01
  prteigrs : nnsclo,ikpt=   10   55 max resid (incl. the buffer)=  1.99367E-07
 Non-SCF case, kpt   56 (  0.33333  0.33333  0.00000), residuals and eigenvalues=
  4.06E-13  7.11E-13  3.67E-13  9.32E-13  3.81E-13  4.52E-13  9.96E-13  4.66E-13
  8.69E-13  3.37E-13  5.58E-13  6.18E-13  2.27E-13  7.21E-13  5.21E-13  4.42E-08
 -5.9178E-01 -5.8593E-01 -3.4580E-01 -3.1966E-01 -3.0147E-01 -2.8181E-01
 -2.6198E-01 -2.3506E-01 -1.5582E-01 -9.2295E-02 -5.3149E-02 -3.2581E-02
  1.8436E-02  1.0555E-01  1.1425E-01  1.8997E-01
  prteigrs : nnsclo,ikpt=   10   56 max resid (incl. the buffer)=  4.41600E-08
 Non-SCF case, kpt   57 (  0.32500  0.32500  0.00000), residuals and eigenvalues=
  6.02E-13  3.97E-13  6.83E-13  4.42E-13  3.31E-13  8.22E-13  7.83E-13  7.08E-13
  6.34E-13  3.65E-13  7.80E-13  9.59E-13  3.73E-13  1.96E-12  7.95E-13  7.92E-08
 -5.9187E-01 -5.8599E-01 -3.4565E-01 -3.2058E-01 -3.0049E-01 -2.8163E-01
 -2.6217E-01 -2.3481E-01 -1.5606E-01 -9.2026E-02 -5.3049E-02 -3.2881E-02
  1.8247E-02  1.0439E-01  1.1594E-01  1.8966E-01
  prteigrs : nnsclo,ikpt=   10   57 max resid (incl. the buffer)=  7.92062E-08
 Non-SCF case, kpt   58 (  0.31667  0.31667  0.00000), residuals and eigenvalues=
  5.00E-13  6.18E-13  4.40E-13  2.54E-13  8.37E-13  9.44E-13  9.26E-13  4.53E-13
  4.42E-13  7.24E-13  4.00E-13  4.76E-13  9.29E-13  5.74E-13  2.11E-12  5.63E-07
 -5.9215E-01 -5.8616E-01 -3.4517E-01 -3.2279E-01 -2.9802E-01 -2.8115E-01
 -2.6274E-01 -2.3405E-01 -1.5677E-01 -9.1232E-02 -5.2734E-02 -3.3791E-02
  1.7732E-02  1.0254E-01  1.1939E-01  1.8873E-01
  prteigrs : nnsclo,ikpt=   10   58 max resid (incl. the buffer)=  5.62555E-07
 Non-SCF case, kpt   59 (  0.30833  0.30833  0.00000), residuals and eigenvalues=
  5.44E-13  4.62E-13  9.36E-13  8.22E-13  9.89E-13  4.14E-13  9.96E-13  2.82E-13
  3.83E-13  6.59E-13  6.94E-13  5.02E-13  8.76E-13  7.73E-13  2.86E-11  1.58E-07
 -5.9264E-01 -5.8646E-01 -3.4437E-01 -3.2550E-01 -2.9486E-01 -2.8040E-01
 -2.6363E-01 -2.3283E-01 -1.5797E-01 -8.9983E-02 -5.2298E-02 -3.5345E-02
  1.6882E-02  1.0120E-01  1.2342E-01  1.8712E-01
  prteigrs : nnsclo,ikpt=   10   59 max resid (incl. the buffer)=  1.58076E-07
 Non-SCF case, kpt   60 (  0.30000  0.30000  0.00000), residuals and eigenvalues=
  7.48E-13  7.50E-13  4.16E-13  5.17E-13  4.57E-13  4.46E-13  4.46E-13  7.13E-13
  5.91E-13  4.36E-13  8.10E-13  6.11E-13  5.00E-13  3.11E-12  2.63E-12  8.24E-08
 -5.9334E-01 -5.8689E-01 -3.4320E-01 -3.2822E-01 -2.9159E-01 -2.7925E-01
 -2.6477E-01 -2.3120E-01 -1.5955E-01 -8.8381E-02 -5.1760E-02 -3.7466E-02
  1.5791E-02  1.0065E-01  1.2774E-01  1.8489E-01
  prteigrs : nnsclo,ikpt=   10   60 max resid (incl. the buffer)=  8.23948E-08
 Non-SCF case, kpt   61 (  0.29167  0.29167  0.00000), residuals and eigenvalues=
  6.59E-13  6.14E-13  3.59E-13  4.51E-13  2.75E-13  6.15E-13  4.56E-13  4.62E-13
  1.63E-13  6.90E-13  4.23E-13  8.22E-13  4.81E-13  9.07E-13  3.50E-11  4.06E-07
 -5.9427E-01 -5.8744E-01 -3.4167E-01 -3.3073E-01 -2.8868E-01 -2.7751E-01
 -2.6607E-01 -2.2924E-01 -1.6147E-01 -8.6550E-02 -5.1186E-02 -4.0155E-02
  1.4487E-02  1.0091E-01  1.3225E-01  1.8210E-01
  prteigrs : nnsclo,ikpt=   10   61 max resid (incl. the buffer)=  4.05845E-07
 Non-SCF case, kpt   62 (  0.28333  0.28333  0.00000), residuals and eigenvalues=
  4.62E-13  4.80E-13  9.94E-13  6.30E-13  7.64E-13  3.70E-13  6.53E-13  8.95E-13
  4.38E-13  2.09E-13  7.19E-13  3.97E-13  9.18E-13  7.71E-13  2.28E-11  3.43E-07
 -5.9544E-01 -5.8813E-01 -3.3978E-01 -3.3289E-01 -2.8648E-01 -2.7493E-01
 -2.6742E-01 -2.2704E-01 -1.6360E-01 -8.4631E-02 -5.0644E-02 -4.3257E-02
  1.3048E-02  1.0195E-01  1.3686E-01  1.7881E-01
  prteigrs : nnsclo,ikpt=   10   62 max resid (incl. the buffer)=  3.42539E-07
 Non-SCF case, kpt   63 (  0.27500  0.27500  0.00000), residuals and eigenvalues=
  5.36E-13  8.16E-13  4.12E-13  8.32E-13  9.96E-13  5.31E-13  9.61E-13  6.73E-13
  8.71E-13  5.28E-13  6.94E-13  2.46E-13  6.63E-13  7.05E-12  1.12E-09  5.98E-07
 -5.9683E-01 -5.8894E-01 -3.3752E-01 -3.3466E-01 -2.8507E-01 -2.7156E-01
 -2.6877E-01 -2.2466E-01 -1.6584E-01 -8.2788E-02 -5.0178E-02 -4.6610E-02
  1.1502E-02  1.0369E-01  1.4145E-01  1.7508E-01
  prteigrs : nnsclo,ikpt=   10   63 max resid (incl. the buffer)=  5.98048E-07
 Non-SCF case, kpt   64 (  0.26667  0.26667  0.00000), residuals and eigenvalues=
  9.20E-13  5.58E-13  7.11E-13  4.02E-13  6.25E-13  3.87E-13  3.88E-13  8.41E-13
  5.51E-13  8.31E-13  5.39E-13  2.37E-13  4.06E-13  1.52E-11  1.84E-09  1.61E-06
 -5.9847E-01 -5.8988E-01 -3.3601E-01 -3.3491E-01 -2.8427E-01 -2.7005E-01
 -2.6764E-01 -2.2216E-01 -1.6814E-01 -8.1223E-02 -5.0115E-02 -4.9902E-02
  9.8723E-03  1.0602E-01  1.4573E-01  1.7097E-01
  prteigrs : nnsclo,ikpt=   10   64 max resid (incl. the buffer)=  1.61003E-06
 Non-SCF case, kpt   65 (  0.25833  0.25833  0.00000), residuals and eigenvalues=
  5.30E-13  3.39E-13  8.29E-13  2.76E-13  6.49E-13  8.04E-13  4.80E-13  5.84E-13
  3.86E-13  2.27E-13  4.12E-13  5.89E-13  9.13E-13  2.01E-10  1.52E-07  6.57E-06
 -6.0032E-01 -5.9093E-01 -3.3693E-01 -3.3194E-01 -2.8390E-01 -2.7122E-01
 -2.6343E-01 -2.1957E-01 -1.7038E-01 -8.0055E-02 -5.3500E-02 -4.9776E-02
  8.2622E-03  1.0889E-01  1.4921E-01  1.6658E-01
  prteigrs : nnsclo,ikpt=   10   65 max resid (incl. the buffer)=  6.56669E-06
 Non-SCF case, kpt   66 (  0.25000  0.25000  0.00000), residuals and eigenvalues=
  8.90E-13  7.40E-13  5.28E-13  9.60E-13  7.05E-13  7.88E-13  5.84E-13  3.83E-13
  8.36E-13  2.42E-13  3.45E-13  5.94E-13  2.05E-13  2.98E-11  1.78E-07  4.69E-06
 -6.0240E-01 -5.9208E-01 -3.3741E-01 -3.2863E-01 -2.8385E-01 -2.7224E-01
 -2.5908E-01 -2.1695E-01 -1.7254E-01 -7.9503E-02 -5.6610E-02 -4.9882E-02
  6.6673E-03  1.1217E-01  1.5104E-01  1.6190E-01
  prteigrs : nnsclo,ikpt=   10   66 max resid (incl. the buffer)=  4.68574E-06
 Non-SCF case, kpt   67 (  0.24167  0.24167  0.00000), residuals and eigenvalues=
  9.91E-13  4.50E-13  4.77E-13  6.88E-13  3.35E-13  5.75E-13  7.80E-13  9.94E-13
  1.99E-13  6.00E-13  5.56E-13  9.38E-13  1.02E-12  1.64E-09  1.20E-07  6.41E-08
 -6.0466E-01 -5.9334E-01 -3.3747E-01 -3.2500E-01 -2.8407E-01 -2.7305E-01
 -2.5467E-01 -2.1432E-01 -1.7455E-01 -7.9696E-02 -5.9203E-02 -5.0223E-02
  5.1598E-03  1.1574E-01  1.5050E-01  1.5700E-01
  prteigrs : nnsclo,ikpt=   10   67 max resid (incl. the buffer)=  1.20222E-07
 Non-SCF case, kpt   68 (  0.23333  0.23333  0.00000), residuals and eigenvalues=
  6.03E-13  4.32E-13  6.14E-13  3.11E-13  4.91E-13  8.04E-13  9.05E-13  5.79E-13
  3.46E-13  6.50E-13  2.93E-13  6.30E-13  5.12E-13  1.16E-09  1.42E-08  4.06E-08
 -6.0712E-01 -5.9468E-01 -3.3715E-01 -3.2106E-01 -2.8455E-01 -2.7366E-01
 -2.5029E-01 -2.1171E-01 -1.7639E-01 -8.0684E-02 -6.1269E-02 -5.0858E-02
  3.6759E-03  1.1939E-01  1.4797E-01  1.5195E-01
  prteigrs : nnsclo,ikpt=   10   68 max resid (incl. the buffer)=  4.06056E-08
 Non-SCF case, kpt   69 (  0.22500  0.22500  0.00000), residuals and eigenvalues=
  7.67E-13  5.45E-13  4.60E-13  5.72E-13  4.88E-13  6.73E-13  4.90E-13  9.39E-13
  1.35E-13  8.99E-13  3.76E-13  9.24E-13  3.52E-13  3.41E-10  3.03E-08  9.18E-10
 -6.0973E-01 -5.9612E-01 -3.3648E-01 -3.1686E-01 -2.8527E-01 -2.7403E-01
 -2.4597E-01 -2.0916E-01 -1.7808E-01 -8.2323E-02 -6.2758E-02 -5.1779E-02
  2.2339E-03  1.2274E-01  1.4464E-01  1.4677E-01
  prteigrs : nnsclo,ikpt=   10   69 max resid (incl. the buffer)=  3.02591E-08
 Non-SCF case, kpt   70 (  0.21667  0.21667  0.00000), residuals and eigenvalues=
  4.92E-13  6.36E-13  8.61E-13  4.24E-13  5.45E-13  7.07E-13  4.57E-13  3.97E-13
  2.34E-13  6.53E-13  8.26E-13  7.36E-13  6.28E-13  1.05E-10  7.64E-09  2.58E-08
 -6.1248E-01 -5.9761E-01 -3.3551E-01 -3.1241E-01 -2.8618E-01 -2.7415E-01
 -2.4176E-01 -2.0668E-01 -1.7957E-01 -8.4293E-02 -6.3875E-02 -5.2912E-02
  7.8440E-04  1.2492E-01  1.4150E-01  1.4204E-01
  prteigrs : nnsclo,ikpt=   10   70 max resid (incl. the buffer)=  2.58443E-08
 Non-SCF case, kpt   71 (  0.20833  0.20833  0.00000), residuals and eigenvalues=
  2.81E-13  4.22E-13  6.37E-13  6.43E-13  3.69E-13  3.87E-13  3.53E-13  6.12E-13
  2.96E-13  8.36E-13  8.15E-13  7.08E-13  3.02E-13  3.72E-10  4.97E-10  4.68E-07
 -6.1536E-01 -5.9917E-01 -3.3429E-01 -3.0774E-01 -2.8726E-01 -2.7398E-01
 -2.3770E-01 -2.0431E-01 -1.8090E-01 -8.6334E-02 -6.4827E-02 -5.4270E-02
 -6.8888E-04  1.2446E-01  1.3620E-01  1.4194E-01
  prteigrs : nnsclo,ikpt=   10   71 max resid (incl. the buffer)=  4.68251E-07
 Non-SCF case, kpt   72 (  0.20000  0.20000  0.00000), residuals and eigenvalues=
  7.47E-13  4.93E-13  5.58E-13  4.94E-13  6.99E-13  2.75E-13  7.11E-13  4.81E-13
  6.08E-13  4.58E-13  7.09E-13  4.71E-13  4.97E-13  5.33E-10  6.49E-10  3.04E-05
 -6.1832E-01 -6.0077E-01 -3.3291E-01 -3.0291E-01 -2.8843E-01 -2.7350E-01
 -2.3385E-01 -2.0204E-01 -1.8205E-01 -8.8179E-02 -6.5716E-02 -5.5782E-02
 -2.2216E-03  1.2136E-01  1.3089E-01  1.4454E-01
  prteigrs : nnsclo,ikpt=   10   72 max resid (incl. the buffer)=  3.03841E-05
 Non-SCF case, kpt   73 (  0.19167  0.19167  0.00000), residuals and eigenvalues=
  6.52E-13  6.21E-13  4.16E-13  5.69E-13  9.00E-13  6.25E-13  3.43E-13  5.97E-13
  6.70E-13  9.42E-13  8.16E-13  2.68E-13  7.71E-12  7.38E-08  1.67E-07  5.77E-05
 -6.2135E-01 -6.0239E-01 -3.3145E-01 -2.9797E-01 -2.8959E-01 -2.7267E-01
 -2.3028E-01 -1.9991E-01 -1.8302E-01 -8.9646E-02 -6.6533E-02 -5.7400E-02
 -3.8628E-03  1.1701E-01  1.2561E-01  1.5447E-01
  prteigrs : nnsclo,ikpt=   10   73 max resid (incl. the buffer)=  5.77395E-05
 Non-SCF case, kpt   74 (  0.18333  0.18333  0.00000), residuals and eigenvalues=
  3.20E-13  5.24E-13  3.52E-13  4.27E-13  9.36E-13  7.04E-13  5.65E-13  4.30E-13
  6.33E-13  4.05E-13  1.99E-13  4.35E-13  5.49E-13  3.16E-09  5.59E-09  9.92E-07
 -6.2442E-01 -6.0404E-01 -3.3006E-01 -2.9300E-01 -2.9063E-01 -2.7142E-01
 -2.2708E-01 -1.9794E-01 -1.8375E-01 -9.0667E-02 -6.7349E-02 -5.9078E-02
 -5.6131E-03  1.1222E-01  1.2039E-01  1.4892E-01
  prteigrs : nnsclo,ikpt=   10   74 max resid (incl. the buffer)=  9.91821E-07
 Non-SCF case, kpt   75 (  0.17500  0.17500  0.00000), residuals and eigenvalues=
  4.30E-13  4.44E-13  6.01E-13  6.92E-13  6.04E-13  2.22E-13  6.82E-13  5.56E-13
  8.68E-13  3.14E-13  3.35E-13  7.01E-13  8.56E-13  2.80E-09  8.29E-09  2.13E-06
 -6.2751E-01 -6.0570E-01 -3.2887E-01 -2.9139E-01 -2.8811E-01 -2.6972E-01
 -2.2439E-01 -1.9613E-01 -1.8421E-01 -9.1204E-02 -6.8157E-02 -6.0756E-02
 -7.5619E-03  1.0731E-01  1.1526E-01  1.4295E-01
  prteigrs : nnsclo,ikpt=   10   75 max resid (incl. the buffer)=  2.12686E-06
 Non-SCF case, kpt   76 (  0.16667  0.16667  0.00000), residuals and eigenvalues=
  4.57E-13  7.00E-13  2.22E-13  5.92E-13  8.33E-13  2.33E-13  4.82E-13  6.72E-13
  5.96E-13  8.66E-13  4.66E-13  9.86E-13  1.17E-12  1.01E-09  1.92E-10  5.79E-07
 -6.3061E-01 -6.0736E-01 -3.2804E-01 -2.9168E-01 -2.8344E-01 -2.6743E-01
 -2.2233E-01 -1.9451E-01 -1.8427E-01 -9.1241E-02 -6.8879E-02 -6.2378E-02
 -9.6787E-03  1.0243E-01  1.1024E-01  1.3723E-01
  prteigrs : nnsclo,ikpt=   10   76 max resid (incl. the buffer)=  5.78627E-07
 Non-SCF case, kpt   77 (  0.15833  0.15833  0.00000), residuals and eigenvalues=
  9.61E-13  5.54E-13  6.03E-13  8.13E-13  2.05E-13  2.68E-13  3.71E-13  4.64E-13
  8.00E-13  8.85E-13  7.46E-13  5.96E-13  6.81E-13  9.38E-12  3.28E-10  5.66E-09
 -6.3368E-01 -6.0900E-01 -3.2775E-01 -2.9137E-01 -2.7915E-01 -2.6443E-01
 -2.2101E-01 -1.9307E-01 -1.8386E-01 -9.0835E-02 -6.9423E-02 -6.3906E-02
 -1.1970E-02  9.7640E-02  1.0535E-01  1.3177E-01
  prteigrs : nnsclo,ikpt=   10   77 max resid (incl. the buffer)=  5.65961E-09
 Non-SCF case, kpt   78 (  0.15000  0.15000  0.00000), residuals and eigenvalues=
  7.48E-13  9.97E-13  6.06E-13  4.56E-13  7.67E-13  3.83E-13  3.86E-13  5.94E-13
  2.65E-13  5.89E-13  9.90E-13  3.76E-13  3.37E-13  4.43E-11  1.96E-10  4.78E-08
 -6.3670E-01 -6.1063E-01 -3.2805E-01 -2.9035E-01 -2.7532E-01 -2.6072E-01
 -2.2049E-01 -1.9183E-01 -1.8289E-01 -9.0002E-02 -6.9738E-02 -6.5289E-02
 -1.4458E-02  9.2990E-02  1.0063E-01  1.2657E-01
  prteigrs : nnsclo,ikpt=   10   78 max resid (incl. the buffer)=  4.77929E-08
 Non-SCF case, kpt   79 (  0.14167  0.14167  0.00000), residuals and eigenvalues=
  8.39E-13  2.76E-13  8.29E-13  5.60E-13  2.71E-13  9.77E-13  2.45E-13  5.69E-13
  4.37E-13  5.38E-13  5.08E-13  4.28E-13  5.53E-13  6.11E-11  1.18E-10  9.29E-10
 -6.3966E-01 -6.1221E-01 -3.2894E-01 -2.8863E-01 -2.7189E-01 -2.5639E-01
 -2.2072E-01 -1.9081E-01 -1.8142E-01 -8.8841E-02 -6.9757E-02 -6.6484E-02
 -1.7110E-02  8.8496E-02  9.6076E-02  1.2162E-01
  prteigrs : nnsclo,ikpt=   10   79 max resid (incl. the buffer)=  9.28657E-10
 Non-SCF case, kpt   80 (  0.13333  0.13333  0.00000), residuals and eigenvalues=
  4.97E-13  9.40E-13  8.95E-13  4.66E-13  7.10E-13  2.75E-13  4.08E-13  7.71E-13
  1.69E-13  5.55E-13  4.46E-13  4.14E-13  9.87E-13  4.34E-12  9.14E-11  1.38E-09
 -6.4254E-01 -6.1376E-01 -3.3035E-01 -2.8627E-01 -2.6871E-01 -2.5165E-01
 -2.2158E-01 -1.9000E-01 -1.7956E-01 -8.7392E-02 -6.9423E-02 -6.7449E-02
 -1.9902E-02  8.4176E-02  9.1715E-02  1.1692E-01
  prteigrs : nnsclo,ikpt=   10   80 max resid (incl. the buffer)=  1.38492E-09
 Non-SCF case, kpt   81 (  0.12500  0.12500  0.00000), residuals and eigenvalues=
  7.16E-13  4.30E-13  6.85E-13  7.09E-13  7.53E-13  7.34E-13  4.88E-13  4.96E-13
  6.84E-13  5.60E-13  3.84E-13  3.60E-13  8.81E-13  5.67E-11  1.11E-10  7.93E-10
 -6.4533E-01 -6.1525E-01 -3.3215E-01 -2.8342E-01 -2.6564E-01 -2.4669E-01
 -2.2296E-01 -1.8941E-01 -1.7748E-01 -8.5730E-02 -6.8783E-02 -6.8168E-02
 -2.2826E-02  8.0034E-02  8.7557E-02  1.1247E-01
  prteigrs : nnsclo,ikpt=   10   81 max resid (incl. the buffer)=  7.93112E-10
 Non-SCF case, kpt   82 (  0.11667  0.11667  0.00000), residuals and eigenvalues=
  3.57E-13  3.14E-13  8.65E-13  7.74E-13  4.99E-13  5.02E-13  7.41E-13  6.78E-13
  3.07E-13  7.69E-13  9.93E-13  5.14E-13  9.36E-13  1.94E-12  7.48E-11  5.76E-10
 -6.4800E-01 -6.1668E-01 -3.3421E-01 -2.8020E-01 -2.6259E-01 -2.4169E-01
 -2.2466E-01 -1.8905E-01 -1.7529E-01 -8.3854E-02 -6.8597E-02 -6.7761E-02
 -2.5820E-02  7.6085E-02  8.3616E-02  1.0826E-01
  prteigrs : nnsclo,ikpt=   10   82 max resid (incl. the buffer)=  5.76054E-10
 Non-SCF case, kpt   83 (  0.10833  0.10833  0.00000), residuals and eigenvalues=
  8.28E-13  3.55E-13  9.89E-13  4.41E-13  2.32E-13  4.29E-13  6.57E-13  9.25E-13
  7.32E-13  3.63E-13  8.45E-13  8.33E-13  9.09E-13  3.74E-12  3.31E-11  2.65E-09
 -6.5055E-01 -6.1805E-01 -3.3643E-01 -2.7672E-01 -2.5947E-01 -2.3677E-01
 -2.2658E-01 -1.8893E-01 -1.7313E-01 -8.1778E-02 -6.8716E-02 -6.6452E-02
 -2.8859E-02  7.2328E-02  7.9902E-02  1.0429E-01
  prteigrs : nnsclo,ikpt=   10   83 max resid (incl. the buffer)=  2.64889E-09
 Non-SCF case, kpt   84 (  0.10000  0.10000  0.00000), residuals and eigenvalues=
  2.98E-13  8.11E-13  6.92E-13  5.92E-13  5.63E-13  1.72E-13  8.02E-13  4.58E-13
  8.68E-13  9.71E-13  3.07E-13  4.13E-13  4.24E-13  7.05E-12  2.30E-11  1.09E-09
 -6.5296E-01 -6.1934E-01 -3.3872E-01 -2.7308E-01 -2.5628E-01 -2.3202E-01
 -2.2860E-01 -1.8904E-01 -1.7109E-01 -7.9485E-02 -6.8496E-02 -6.4901E-02
 -3.1897E-02  6.8762E-02  7.6427E-02  1.0055E-01
  prteigrs : nnsclo,ikpt=   10   84 max resid (incl. the buffer)=  1.09063E-09
 Non-SCF case, kpt   85 (  0.09167  0.09167  0.00000), residuals and eigenvalues=
  4.51E-13  8.99E-13  3.54E-13  6.12E-13  6.62E-13  7.65E-13  5.24E-13  6.99E-13
  3.20E-13  5.61E-13  6.63E-13  9.09E-13  9.41E-13  7.93E-11  2.64E-10  9.01E-09
 -6.5521E-01 -6.2056E-01 -3.4100E-01 -2.6939E-01 -2.5300E-01 -2.3065E-01
 -2.2754E-01 -1.8939E-01 -1.6925E-01 -7.6978E-02 -6.7959E-02 -6.3199E-02
 -3.4906E-02  6.5391E-02  7.3196E-02  9.7032E-02
  prteigrs : nnsclo,ikpt=   10   85 max resid (incl. the buffer)=  9.01227E-09
 Non-SCF case, kpt   86 (  0.08333  0.08333  0.00000), residuals and eigenvalues=
  4.36E-13  5.53E-13  9.81E-13  6.97E-13  3.07E-13  4.58E-13  7.21E-13  3.37E-13
  7.68E-13  3.38E-13  4.10E-13  8.96E-13  9.89E-13  2.31E-12  1.55E-11  6.53E-10
 -6.5730E-01 -6.2168E-01 -3.4322E-01 -2.6568E-01 -2.4964E-01 -2.3264E-01
 -2.2335E-01 -1.8998E-01 -1.6763E-01 -7.4232E-02 -6.7076E-02 -6.1402E-02
 -3.7826E-02  6.2209E-02  7.0219E-02  9.3726E-02
  prteigrs : nnsclo,ikpt=   10   86 max resid (incl. the buffer)=  6.52528E-10
 Non-SCF case, kpt   87 (  0.07500  0.07500  0.00000), residuals and eigenvalues=
  5.44E-13  7.69E-13  9.90E-13  4.47E-13  7.65E-13  2.00E-13  3.61E-13  4.96E-13
  3.76E-13  6.58E-13  9.19E-13  4.74E-13  1.52E-12  1.02E-11  2.05E-11  1.83E-10
 -6.5922E-01 -6.2272E-01 -3.4534E-01 -2.6209E-01 -2.4622E-01 -2.3457E-01
 -2.1952E-01 -1.9080E-01 -1.6626E-01 -7.1290E-02 -6.5905E-02 -5.9625E-02
 -4.0628E-02  5.9212E-02  6.7501E-02  9.0621E-02
  prteigrs : nnsclo,ikpt=   10   87 max resid (incl. the buffer)=  1.83395E-10
 Non-SCF case, kpt   88 (  0.06667  0.06667  0.00000), residuals and eigenvalues=
  7.80E-13  5.33E-13  6.68E-13  3.84E-13  3.47E-13  6.98E-13  5.36E-13  3.32E-13
  6.94E-13  8.34E-13  3.88E-13  3.17E-13  3.27E-13  1.70E-11  3.00E-11  2.56E-09
 -6.6096E-01 -6.2367E-01 -3.4733E-01 -2.5867E-01 -2.4277E-01 -2.3637E-01
 -2.1608E-01 -1.9188E-01 -1.6515E-01 -6.8211E-02 -6.4511E-02 -5.7905E-02
 -4.3279E-02  5.6396E-02  6.5046E-02  8.7708E-02
  prteigrs : nnsclo,ikpt=   10   88 max resid (incl. the buffer)=  2.56316E-09
 Non-SCF case, kpt   89 (  0.05833  0.05833  0.00000), residuals and eigenvalues=
  9.85E-13  5.66E-13  4.46E-13  2.39E-13  9.72E-13  2.50E-13  2.25E-13  9.93E-13
  5.09E-13  4.63E-13  5.35E-13  9.04E-13  5.92E-13  2.33E-11  2.50E-11  2.70E-09
 -6.6252E-01 -6.2451E-01 -3.4913E-01 -2.5545E-01 -2.3929E-01 -2.3800E-01
 -2.1305E-01 -1.9317E-01 -1.6424E-01 -6.5038E-02 -6.2902E-02 -5.6280E-02
 -4.5711E-02  5.3766E-02  6.2863E-02  8.4986E-02
  prteigrs : nnsclo,ikpt=   10   89 max resid (incl. the buffer)=  2.69682E-09
 Non-SCF case, kpt   90 (  0.05000  0.05000  0.00000), residuals and eigenvalues=
  5.55E-13  4.00E-13  5.85E-13  3.24E-13  3.19E-13  9.36E-13  4.74E-13  4.76E-13
  7.87E-13  6.93E-13  3.43E-13  7.85E-13  4.82E-13  1.43E-11  1.51E-11  4.54E-09
 -6.6388E-01 -6.2524E-01 -3.5074E-01 -2.5253E-01 -2.3945E-01 -2.3585E-01
 -2.1044E-01 -1.9469E-01 -1.6353E-01 -6.1897E-02 -6.1200E-02 -5.4814E-02
 -4.7912E-02  5.1326E-02  6.0954E-02  8.2462E-02
  prteigrs : nnsclo,ikpt=   10   90 max resid (incl. the buffer)=  4.54181E-09
 Non-SCF case, kpt   91 (  0.04167  0.04167  0.00000), residuals and eigenvalues=
  7.93E-13  4.86E-13  9.04E-13  1.99E-13  3.37E-13  9.27E-13  1.93E-13  7.86E-13
  3.68E-13  4.90E-13  4.79E-13  9.36E-13  6.05E-13  1.40E-11  3.80E-13  8.36E-09
 -6.6504E-01 -6.2587E-01 -3.5213E-01 -2.4994E-01 -2.4070E-01 -2.3248E-01
 -2.0824E-01 -1.9635E-01 -1.6299E-01 -5.9458E-02 -5.8879E-02 -5.3520E-02
 -4.9827E-02  4.9099E-02  5.9326E-02  8.0164E-02
  prteigrs : nnsclo,ikpt=   10   91 max resid (incl. the buffer)=  8.35721E-09
 Non-SCF case, kpt   92 (  0.03333  0.03333  0.00000), residuals and eigenvalues=
  4.67E-13  4.06E-13  9.65E-13  4.46E-13  2.45E-13  4.49E-13  9.85E-13  9.83E-13
  9.59E-13  8.73E-13  9.62E-13  4.70E-13  9.19E-13  4.66E-11  1.36E-11  1.83E-09
 -6.6599E-01 -6.2639E-01 -3.5329E-01 -2.4774E-01 -2.4175E-01 -2.2928E-01
 -2.0647E-01 -1.9815E-01 -1.6257E-01 -5.7844E-02 -5.6131E-02 -5.2445E-02
 -5.1442E-02  4.7125E-02  5.7982E-02  7.8139E-02
  prteigrs : nnsclo,ikpt=   10   92 max resid (incl. the buffer)=  1.82692E-09
 Non-SCF case, kpt   93 (  0.02500  0.02500  0.00000), residuals and eigenvalues=
  5.69E-13  5.46E-13  5.38E-13  3.55E-13  8.19E-13  4.38E-13  7.82E-13  3.70E-13
  6.60E-13  5.53E-13  3.07E-13  8.14E-13  5.07E-13  3.53E-11  5.06E-11  3.35E-09
 -6.6674E-01 -6.2679E-01 -3.5421E-01 -2.4597E-01 -2.4257E-01 -2.2634E-01
 -2.0511E-01 -1.9997E-01 -1.6229E-01 -5.6434E-02 -5.3787E-02 -5.2724E-02
 -5.1589E-02  4.5463E-02  5.6929E-02  7.6456E-02
  prteigrs : nnsclo,ikpt=   10   93 max resid (incl. the buffer)=  3.35361E-09
 Non-SCF case, kpt   94 (  0.01667  0.01667  0.00000), residuals and eigenvalues=
  4.75E-13  3.87E-13  9.57E-13  5.38E-13  2.56E-13  6.41E-13  4.87E-13  5.32E-13
  3.80E-13  7.33E-13  7.97E-13  8.75E-13  9.39E-13  1.48E-12  2.22E-10  9.24E-09
 -6.6728E-01 -6.2708E-01 -3.5487E-01 -2.4469E-01 -2.4316E-01 -2.2387E-01
 -2.0413E-01 -2.0165E-01 -1.6210E-01 -5.5340E-02 -5.3643E-02 -5.1989E-02
 -5.0968E-02  4.4190E-02  5.6172E-02  7.5188E-02
  prteigrs : nnsclo,ikpt=   10   94 max resid (incl. the buffer)=  9.24393E-09
 Non-SCF case, kpt   95 (  0.00833  0.00833  0.00000), residuals and eigenvalues=
  5.28E-13  5.14E-13  6.71E-13  4.66E-13  2.74E-13  6.37E-13  8.53E-13  8.62E-13
  6.47E-13  9.96E-13  5.96E-13  8.28E-13  7.62E-13  9.42E-12  5.45E-11  2.49E-09
 -6.6760E-01 -6.2726E-01 -3.5526E-01 -2.4390E-01 -2.4351E-01 -2.2214E-01
 -2.0356E-01 -2.0291E-01 -1.6199E-01 -5.4642E-02 -5.4196E-02 -5.0854E-02
 -5.0590E-02  4.3386E-02  5.5716E-02  7.4398E-02
  prteigrs : nnsclo,ikpt=   10   95 max resid (incl. the buffer)=  2.49411E-09
 Non-SCF case, kpt   96 (  0.00000  0.00000  0.00000), residuals and eigenvalues=
  5.18E-13  7.48E-13  5.05E-13  6.74E-13  5.49E-13  9.32E-13  2.85E-13  5.31E-13
  3.70E-13  6.13E-13  4.59E-13  9.86E-13  6.38E-13  8.15E-13  5.03E-13  2.15E-09
 -6.6771E-01 -6.2731E-01 -3.5539E-01 -2.4362E-01 -2.4362E-01 -2.2150E-01
 -2.0335E-01 -2.0335E-01 -1.6195E-01 -5.4371E-02 -5.4371E-02 -5.0465E-02
 -5.0465E-02  4.3109E-02  5.5564E-02  7.4130E-02
  prteigrs : nnsclo,ikpt=   10   96 max resid (incl. the buffer)=  2.15383E-09


 scprqt:  WARNING -
  nstep=   10 was not enough non-SCF iterations to converge;
  maximum residual=  7.382E-08 exceeds tolwfr=  1.000E-12

 Integrated electronic density in atomic spheres:
 ------------------------------------------------
 Atom  Sphere_radius  Integrated_density
    1        2.00000          2.94791379
    2        2.00000          3.82293572
    3        2.00000          3.82293572
================================================================================

 ----iterations are completed or convergence reached----

 Mean square residual over all n,k,spin=   2.7374E-07; max=  7.8174E-05
 reduced coordinates (array xred) for    3 atoms
       0.000000000000      0.000000000000      0.000000000000
       0.666666666667      0.333333333333      0.079078110549
       0.666666666667      0.333333333333     -0.079078110549

 cartesian coordinates (angstrom) at end:
    1      0.00000000000000     0.00000000000000     0.00000000000000
    2      1.60247312708526     0.92518829128708     1.60914980438335
    3      1.60247312708526     0.92518829128708    -1.60914980438335
 length scales=  6.056470691000  6.056470691000 38.453782165000 bohr
              =  3.204946254171  3.204946254171 20.348865105803 angstroms
 prteigrs : about to open file mos2_5o_DS2_EIG
 Eigenvalues (   eV  ) for nkpt=  96  k points:
 kpt#   1, nband= 16, wtk=  1.00000, kpt=  0.0000  0.0000  0.0000 (reduced coord)
 -18.16926  -17.06993   -9.67076   -6.62936   -6.62936   -6.02727   -5.53354   -5.53354
  -4.40696   -1.47951   -1.47951   -1.37322   -1.37322    1.17304    1.51197    2.01718
 kpt#   2, nband= 16, wtk=  1.00000, kpt=  0.0143  0.0000  0.0000 (reduced coord)
 -18.16635  -17.06855   -9.66735   -6.63660   -6.62650   -6.04433   -5.53917   -5.52167
  -4.40818   -1.48682   -1.47498   -1.38349   -1.37662    1.18042    1.51602    2.02432
 kpt#   3, nband= 16, wtk=  1.00000, kpt=  0.0286  0.0000  0.0000 (reduced coord)
 -18.15776  -17.06389   -9.65671   -6.65754   -6.61701   -6.09067   -5.55425   -5.48829
  -4.41092   -1.50529   -1.46007   -1.41378   -1.38659    1.20189    1.52819    2.04538
 kpt#   4, nband= 16, wtk=  1.00000, kpt=  0.0429  0.0000  0.0000 (reduced coord)
 -18.14345  -17.05612   -9.63909   -6.69185   -6.60117   -6.15705   -5.57855   -5.44405
  -4.41570   -1.53408   -1.46195   -1.43554   -1.40291    1.23587    1.54837    2.07923
 kpt#   5, nband= 16, wtk=  1.00000, kpt=  0.0571  0.0000  0.0000 (reduced coord)
 -18.12355  -17.04535   -9.61478   -6.73903   -6.57923   -6.23623   -5.61258   -5.39742
  -4.42362   -1.57078   -1.52500   -1.42529   -1.40265    1.28022    1.57643    2.12413
 kpt#   6, nband= 16, wtk=  1.00000, kpt=  0.0714  0.0000  0.0000 (reduced coord)
 -18.09803  -17.03153   -9.58382   -6.79787   -6.55092   -6.32346   -5.65431   -5.35307
  -4.43418   -1.61185   -1.59909   -1.45315   -1.36126    1.33289    1.61225    2.17814
 kpt#   7, nband= 16, wtk=  1.00000, kpt=  0.0857  0.0000  0.0000 (reduced coord)
 -18.06709  -17.01477   -9.54669   -6.86767   -6.51679   -6.41626   -5.70380   -5.31493
  -4.44856   -1.68104   -1.65403   -1.48578   -1.31331    1.39215    1.65566    2.23934
 kpt#   8, nband= 16, wtk=  1.00000, kpt=  0.1000  0.0000  0.0000 (reduced coord)
 -18.03083  -16.99517   -9.50384   -6.94658   -6.51319   -6.47757   -5.75971   -5.28542
  -4.46753   -1.76644   -1.69417   -1.52318   -1.25960    1.45682    1.70650    2.30634
 kpt#   9, nband= 16, wtk=  1.00000, kpt=  0.1143  0.0000  0.0000 (reduced coord)
 -17.98940  -16.97286   -9.45593   -7.03361   -6.61318   -6.43265   -5.82097   -5.26623
  -4.49260   -1.85241   -1.72801   -1.56400   -1.20099    1.52615    1.76459    2.37827
 kpt#  10, nband= 16, wtk=  1.00000, kpt=  0.1286  0.0000  0.0000 (reduced coord)
 -17.94292  -16.94777   -9.40350   -7.12657   -6.71524   -6.38258   -5.88658   -5.25808
  -4.52317   -1.93512   -1.75219   -1.60758   -1.13880    1.59990    1.82984    2.45481
 kpt#  11, nband= 16, wtk=  1.00000, kpt=  0.1429  0.0000  0.0000 (reduced coord)
 -17.89167  -16.92001   -9.34747   -7.22500   -6.81981   -6.32726   -5.95591   -5.26202
  -4.56010   -2.01184   -1.76554   -1.65283   -1.07379    1.67789    1.90207    2.53594
 kpt#  12, nband= 16, wtk=  1.00000, kpt=  0.1571  0.0000  0.0000 (reduced coord)
 -17.83585  -16.88998   -9.28928   -7.32636   -6.92621   -6.26798   -6.02763   -5.27787
  -4.60481   -2.08088   -1.76657   -1.69937   -1.00779    1.75995    1.98104    2.62171
 kpt#  13, nband= 16, wtk=  1.00000, kpt=  0.1714  0.0000  0.0000 (reduced coord)
 -17.77577  -16.85773   -9.23024   -7.42919   -7.03463   -6.20503   -6.10119   -5.30467
  -4.65679   -2.13989   -1.75435   -1.74689   -0.94142    1.84602    2.06657    2.71229
 kpt#  14, nband= 16, wtk=  1.00000, kpt=  0.1857  0.0000  0.0000 (reduced coord)
 -17.71163  -16.82333   -9.17223   -7.53103   -7.14424   -6.17563   -6.13857   -5.34092
  -4.71512   -2.18751   -1.79398   -1.72825   -0.87544    1.93603    2.15843    2.80782
 kpt#  15, nband= 16, wtk=  1.00000, kpt=  0.2000  0.0000  0.0000 (reduced coord)
 -17.64373  -16.78696   -9.11749   -7.62963   -7.25555   -6.25061   -6.06918   -5.38525
  -4.77848   -2.22242   -1.83988   -1.68969   -0.81095    2.02978    2.25633    2.90840
 kpt#  16, nband= 16, wtk=  1.00000, kpt=  0.2143  0.0000  0.0000 (reduced coord)
 -17.57256  -16.74887   -9.06895   -7.72277   -7.36775   -6.32497   -5.99756   -5.43578
  -4.84575   -2.24589   -1.88428   -1.63904   -0.74796    2.12684    2.35987    3.01396
 kpt#  17, nband= 16, wtk=  1.00000, kpt=  0.2286  0.0000  0.0000 (reduced coord)
 -17.49835  -16.70938   -9.03022   -7.80717   -7.48112   -6.39836   -5.92410   -5.49067
  -4.91436   -2.25738   -1.92584   -1.57872   -0.68733    2.22679    2.46860    3.12439
 kpt#  18, nband= 16, wtk=  1.00000, kpt=  0.2429  0.0000  0.0000 (reduced coord)
 -17.42161  -16.66866   -9.00505   -7.87984   -7.59484   -6.47018   -5.84930   -5.54811
  -4.98176   -2.25764   -1.96453   -1.50950   -0.62927    2.32899    2.58193    3.23932
 kpt#  19, nband= 16, wtk=  1.00000, kpt=  0.2571  0.0000  0.0000 (reduced coord)
 -17.34288  -16.62688   -8.99736   -7.93805   -7.70893   -6.53976   -5.77436   -5.60651
  -5.04562   -2.24810   -1.99995   -1.43423   -0.57373    2.43265    2.69908    3.35792
 kpt#  20, nband= 16, wtk=  1.00000, kpt=  0.2714  0.0000  0.0000 (reduced coord)
 -17.26273  -16.58463   -9.00939   -7.98028   -7.82275   -6.60785   -5.70041   -5.66449
  -5.10303   -2.22938   -2.03218   -1.35405   -0.52278    2.53661    2.81902    3.47777
 kpt#  21, nband= 16, wtk=  1.00000, kpt=  0.2857  0.0000  0.0000 (reduced coord)
 -17.18156  -16.54196   -9.04103   -8.00734   -7.93544   -6.67284   -5.72090   -5.62751
  -5.15140   -2.20197   -2.05910   -1.26989   -0.47490    2.63976    2.94041    3.59705
 kpt#  22, nband= 16, wtk=  1.00000, kpt=  0.3000  0.0000  0.0000 (reduced coord)
 -17.10004  -16.49930   -9.09009   -8.04622   -8.02261   -6.73502   -5.77483   -5.55642
  -5.18878   -2.16833   -2.08226   -1.18344   -0.43087    2.74007    3.06113    3.64435
 kpt#  23, nband= 16, wtk=  1.00000, kpt=  0.3143  0.0000  0.0000 (reduced coord)
 -17.01896  -16.45720   -9.15281   -8.15476   -8.03055   -6.79421   -5.82585   -5.48812
  -5.21364   -2.13014   -2.10114   -1.09730   -0.39097    2.83328    3.17831    3.56267
 kpt#  24, nband= 16, wtk=  1.00000, kpt=  0.3286  0.0000  0.0000 (reduced coord)
 -16.93886  -16.41581   -9.22455   -8.25968   -8.03517   -6.84963   -5.87324   -5.42273
  -5.22466   -2.11465   -2.08721   -1.01165   -0.35468    2.91143    3.28769    3.42546
 kpt#  25, nband= 16, wtk=  1.00000, kpt=  0.3429  0.0000  0.0000 (reduced coord)
 -16.86053  -16.37554   -9.30128   -8.35992   -8.03977   -6.90130   -5.91657   -5.36117
  -5.22164   -2.12342   -2.04017   -0.92740   -0.32179    2.94735    3.30705    3.38338
 kpt#  26, nband= 16, wtk=  1.00000, kpt=  0.3571  0.0000  0.0000 (reduced coord)
 -16.78481  -16.33679   -9.38001   -8.45538   -8.04642   -6.94912   -5.95605   -5.30399
  -5.20581   -2.12815   -1.99030   -0.84727   -0.29228    2.88501    3.27370    3.45834
 kpt#  27, nband= 16, wtk=  1.00000, kpt=  0.3714  0.0000  0.0000 (reduced coord)
 -16.71268  -16.30035   -9.45834   -8.54517   -8.05603   -6.99339   -5.99165   -5.25192
  -5.17922   -2.13017   -1.93935   -0.77276   -0.26686    2.74041    3.31541    3.50725
 kpt#  28, nband= 16, wtk=  1.00000, kpt=  0.3857  0.0000  0.0000 (reduced coord)
 -16.64479  -16.26598   -9.53361   -8.62773   -8.06847   -7.03274   -6.02293   -5.20454
  -5.14380   -2.12747   -1.88665   -0.70275   -0.24393    2.57128    3.38007    3.53123
[...]
  -4.65572   -2.16290   -1.86386   -1.76605   -0.86797    1.87112    2.07968    2.73609
 kpt#  85, nband= 16, wtk=  1.00000, kpt=  0.0917  0.0917  0.0000 (reduced coord)
 -17.82915  -16.88621   -9.27915   -7.33039   -6.88458   -6.27625   -6.19154   -5.15348
  -4.60557   -2.09467   -1.84925   -1.71973   -0.94983    1.77939    1.99176    2.64037
 kpt#  86, nband= 16, wtk=  1.00000, kpt=  0.0833  0.0833  0.0000 (reduced coord)
 -17.88601  -16.91688   -9.33961   -7.22965   -6.79315   -6.33041   -6.07764   -5.16956
  -4.56150   -2.01997   -1.82524   -1.67083   -1.02931    1.69280    1.91075    2.55041
 kpt#  87, nband= 16, wtk=  1.00000, kpt=  0.0750  0.0750  0.0000 (reduced coord)
 -17.93827  -16.94514   -9.39729   -7.13177   -6.69999   -6.38286   -5.97337   -5.19199
  -4.52425   -1.93990   -1.79337   -1.62247   -1.10554    1.61125    1.83678    2.46592
 kpt#  88, nband= 16, wtk=  1.00000, kpt=  0.0667  0.0667  0.0000 (reduced coord)
 -17.98571  -16.97085   -9.45122   -7.03869   -6.60606   -6.43191   -5.87982   -5.22139
  -4.49386   -1.85612   -1.75544   -1.57568   -1.17767    1.53462    1.77000    2.38665
 kpt#  89, nband= 16, wtk=  1.00000, kpt=  0.0583  0.0583  0.0000 (reduced coord)
 -18.02799  -16.99366   -9.50035   -6.95120   -6.51144   -6.47617   -5.79726   -5.25656
  -4.46912   -1.76977   -1.71164   -1.53145   -1.24387    1.46304    1.71059    2.31258
 kpt#  90, nband= 16, wtk=  1.00000, kpt=  0.0500  0.0500  0.0000 (reduced coord)
 -18.06501  -17.01376   -9.54416   -6.87180   -6.51588   -6.41776   -5.72632   -5.29765
  -4.44994   -1.68430   -1.66534   -1.49156   -1.30376    1.39664    1.65864    2.24390
 kpt#  91, nband= 16, wtk=  1.00000, kpt=  0.0417  0.0417  0.0000 (reduced coord)
 -18.09657  -17.03077   -9.58206   -6.80110   -6.54976   -6.32607   -5.66660   -5.34308
  -4.43519   -1.61792   -1.60219   -1.45635   -1.35586    1.33606    1.61433    2.18136
 kpt#  92, nband= 16, wtk=  1.00000, kpt=  0.0333  0.0333  0.0000 (reduced coord)
 -18.12257  -17.04488   -9.61357   -6.74125   -6.57836   -6.23891   -5.61832   -5.39204
  -4.42378   -1.57402   -1.52740   -1.42711   -1.39982    1.28235    1.57777    2.12628
 kpt#  93, nband= 16, wtk=  1.00000, kpt=  0.0250  0.0250  0.0000 (reduced coord)
 -18.14289  -17.05591   -9.63849   -6.69326   -6.60071   -6.15912   -5.58121   -5.44143
  -4.41614   -1.53565   -1.46363   -1.43470   -1.40380    1.23711    1.54912    2.08048
 kpt#  94, nband= 16, wtk=  1.00000, kpt=  0.0167  0.0167  0.0000 (reduced coord)
 -18.15750  -17.06379   -9.65641   -6.65832   -6.61675   -6.09180   -5.55477   -5.48713
  -4.41095   -1.50587   -1.45970   -1.41469   -1.38690    1.20247    1.52852    2.04596
 kpt#  95, nband= 16, wtk=  1.00000, kpt=  0.0083  0.0083  0.0000 (reduced coord)
 -18.16630  -17.06850   -9.66721   -6.63687   -6.62628   -6.04469   -5.53923   -5.52136
  -4.40807   -1.48689   -1.47476   -1.38380   -1.37662    1.18058    1.51611    2.02447
 kpt#  96, nband= 16, wtk=  1.00000, kpt=  0.0000  0.0000  0.0000 (reduced coord)
 -18.16926  -17.06993   -9.67076   -6.62936   -6.62936   -6.02727   -5.53354   -5.53354
  -4.40696   -1.47951   -1.47951   -1.37322   -1.37322    1.17304    1.51197    2.01718

== END DATASET(S) ==============================================================
================================================================================
  
 -outvars: echo values of variables after computation  --------
            acell      6.0564706910E+00  6.0564706910E+00  3.8453782165E+01 Bohr
              amu      9.59400000E+01  3.20660000E+01
           diemac      1.20000000E+01
             ecut      1.70000000E+01 Hartree
           enunit1          0
           enunit2          1
           etotal1    -3.2165020815E+01
            fcart1    -1.4819660715E-29 -8.5561351032E-30 -0.0000000000E+00
                       7.4098303576E-30  4.2780675516E-30 -2.8113492056E-04
                       7.4098303576E-30  4.2780675516E-30  2.8113492056E-04
-          fftalg         112
           getden1          0
           getden2         -1
             iscf1          7
             iscf2         -2
           istwfk1       4    0    0    0    5    0    0    0    0    0
           istwfk2       2    0    0    0    0    0    0    0    0    0
                         0    0    0    0    0    0    0    0    0    0
                         0    0    0    0    0    0    0    0    0    0
                         0    0    0    0    0    3    0    0    0    0
                         0    0    0    0    0    0    0    0    0    0
                       outvar_i_n : Printing only first  50 k-points.
           jdtset        1    2
              kpt1     0.00000000E+00  0.00000000E+00  5.00000000E-01
                       1.25000000E-01  0.00000000E+00  5.00000000E-01
                       2.50000000E-01  0.00000000E+00  5.00000000E-01
                       3.75000000E-01  0.00000000E+00  5.00000000E-01
                       5.00000000E-01  0.00000000E+00  5.00000000E-01
                       1.25000000E-01  1.25000000E-01  5.00000000E-01
                       2.50000000E-01  1.25000000E-01  5.00000000E-01
                       3.75000000E-01  1.25000000E-01  5.00000000E-01
                       2.50000000E-01  2.50000000E-01  5.00000000E-01
                       3.75000000E-01  2.50000000E-01  5.00000000E-01
              kpt2     0.00000000E+00  0.00000000E+00  0.00000000E+00
                       1.42857143E-02  0.00000000E+00  0.00000000E+00
                       2.85714286E-02  0.00000000E+00  0.00000000E+00
                       4.28571429E-02  0.00000000E+00  0.00000000E+00
                       5.71428571E-02  0.00000000E+00  0.00000000E+00
                       7.14285714E-02  0.00000000E+00  0.00000000E+00
                       8.57142857E-02  0.00000000E+00  0.00000000E+00
                       1.00000000E-01  0.00000000E+00  0.00000000E+00
                       1.14285714E-01  0.00000000E+00  0.00000000E+00
                       1.28571429E-01  0.00000000E+00  0.00000000E+00
                       1.42857143E-01  0.00000000E+00  0.00000000E+00
                       1.57142857E-01  0.00000000E+00  0.00000000E+00
                       1.71428571E-01  0.00000000E+00  0.00000000E+00
                       1.85714286E-01  0.00000000E+00  0.00000000E+00
                       2.00000000E-01  0.00000000E+00  0.00000000E+00
                       2.14285714E-01  0.00000000E+00  0.00000000E+00
                       2.28571429E-01  0.00000000E+00  0.00000000E+00
                       2.42857143E-01  0.00000000E+00  0.00000000E+00
                       2.57142857E-01  0.00000000E+00  0.00000000E+00
                       2.71428571E-01  0.00000000E+00  0.00000000E+00
                       2.85714286E-01  0.00000000E+00  0.00000000E+00
                       3.00000000E-01  0.00000000E+00  0.00000000E+00
                       3.14285714E-01  0.00000000E+00  0.00000000E+00
                       3.28571429E-01  0.00000000E+00  0.00000000E+00
                       3.42857143E-01  0.00000000E+00  0.00000000E+00
                       3.57142857E-01  0.00000000E+00  0.00000000E+00
                       3.71428571E-01  0.00000000E+00  0.00000000E+00
                       3.85714286E-01  0.00000000E+00  0.00000000E+00
                       4.00000000E-01  0.00000000E+00  0.00000000E+00
                       4.14285714E-01  0.00000000E+00  0.00000000E+00
                       4.28571429E-01  0.00000000E+00  0.00000000E+00
                       4.42857143E-01  0.00000000E+00  0.00000000E+00
                       4.57142857E-01  0.00000000E+00  0.00000000E+00
                       4.71428571E-01  0.00000000E+00  0.00000000E+00
                       4.85714286E-01  0.00000000E+00  0.00000000E+00
                       5.00000000E-01  0.00000000E+00  0.00000000E+00
                       4.91666667E-01  1.66666667E-02  0.00000000E+00
                       4.83333333E-01  3.33333333E-02  0.00000000E+00
                       4.75000000E-01  5.00000000E-02  0.00000000E+00
                       4.66666667E-01  6.66666667E-02  0.00000000E+00
                       4.58333333E-01  8.33333333E-02  0.00000000E+00
                       4.50000000E-01  1.00000000E-01  0.00000000E+00
                       4.41666667E-01  1.16666667E-01  0.00000000E+00
                       4.33333333E-01  1.33333333E-01  0.00000000E+00
                       4.25000000E-01  1.50000000E-01  0.00000000E+00
                       4.16666667E-01  1.66666667E-01  0.00000000E+00
                       4.08333333E-01  1.83333333E-01  0.00000000E+00
                       4.00000000E-01  2.00000000E-01  0.00000000E+00
                       3.91666667E-01  2.16666667E-01  0.00000000E+00
                       3.83333333E-01  2.33333333E-01  0.00000000E+00
                       outvar_i_n : Printing only first  50 k-points.
           kptopt1          1
           kptopt2         -3
         kptrlatt        8    0    0      0    8    0      0    0    1
          kptrlen1     4.84517655E+01
          kptrlen2     3.00000000E+01
P           mkmem1         10
P           mkmem2         96
            natom           3
            nband1         10
            nband2         16
           nbdbuf1          0
           nbdbuf2          2
           ndtset           2
            ngfft          24      24     144
             nkpt1         10
             nkpt2         96
            nstep          10
             nsym          12
           ntypat           2
              occ      2.000000  2.000000  2.000000  2.000000  2.000000  2.000000
                       2.000000  2.000000  2.000000  0.000000
            rprim      1.0000000000E+00  0.0000000000E+00  0.0000000000E+00
                      -5.0000000000E-01  8.6602540378E-01  0.0000000000E+00
                       0.0000000000E+00  0.0000000000E+00  1.0000000000E+00
           shiftk1     0.00000000E+00  0.00000000E+00  5.00000000E-01
           shiftk2     5.00000000E-01  5.00000000E-01  5.00000000E-01
          spgroup         187
           strten1     2.8346217494E-05  2.8346217507E-05  2.9234770775E-05
                       0.0000000000E+00  0.0000000000E+00  0.0000000000E+00
           symrel      1  0  0   0  1  0   0  0  1       0 -1  0  -1  0  0   0  0 -1
                      -1 -1  0   1  0  0   0  0 -1      -1  0  0   1  1  0   0  0  1
                       0  1  0  -1 -1  0   0  0  1       1  1  0   0 -1  0   0  0 -1
                       1  0  0   0  1  0   0  0 -1       0 -1  0  -1  0  0   0  0  1
                      -1 -1  0   1  0  0   0  0  1      -1  0  0   1  1  0   0  0 -1
                       0  1  0  -1 -1  0   0  0 -1       1  1  0   0 -1  0   0  0  1
           toldfe1     1.00000000E-06 Hartree
           toldfe2     0.00000000E+00 Hartree
           tolwfr1     0.00000000E+00
           tolwfr2     1.00000000E-12
            typat      1  2  2
              wtk1       0.01563    0.09375    0.09375    0.09375    0.04688    0.09375
                         0.18750    0.18750    0.09375    0.09375
              wtk2       1.00000    1.00000    1.00000    1.00000    1.00000    1.00000
                         1.00000    1.00000    1.00000    1.00000    1.00000    1.00000
                         1.00000    1.00000    1.00000    1.00000    1.00000    1.00000
                         1.00000    1.00000    1.00000    1.00000    1.00000    1.00000
                         1.00000    1.00000    1.00000    1.00000    1.00000    1.00000
                         1.00000    1.00000    1.00000    1.00000    1.00000    1.00000
                         1.00000    1.00000    1.00000    1.00000    1.00000    1.00000
                         1.00000    1.00000    1.00000    1.00000    1.00000    1.00000
                         1.00000    1.00000
                       outvars : Printing only first  50 k-points.
           xangst      1.6237379922E-27  0.0000000000E+00  1.6459063547E-19
                       1.6024731271E+00  9.2518829129E-01  1.6091498044E+00
                       1.6024731271E+00  9.2518829129E-01 -1.6091498044E+00
            xcart      3.0684201168E-27  0.0000000000E+00  3.1103122508E-19
                       3.0282353455E+00  1.7483524919E+00  3.0408524371E+00
                       3.0282353455E+00  1.7483524919E+00 -3.0408524371E+00
             xred      5.0663501458E-28  0.0000000000E+00  8.0884429974E-21
                       6.6666666667E-01  3.3333333333E-01  7.9078110549E-02
                       6.6666666667E-01  3.3333333333E-01 -7.9078110549E-02
            znucl       42.00000   16.00000

================================================================================

- Total cpu        time (s,m,h):        462.7        7.71      0.129
- Total wall clock time (s,m,h):        259.8        4.33      0.072
-
- For major independent code sections, cpu and wall times (sec),
-  as well as % of the time and number of calls for node 0-
-<BEGIN_TIMER mpi_nprocs = 1, omp_nthreads = 1, mpi_rank = 0>
- cpu_time =          462.7, wall_time =          259.8
-
- routine                        cpu     %       wall     %      number of calls  Gflops    Speedup Efficacity
-                                                                  (-1=no count)
- fourwf%(pot)                 250.509  54.1    140.489  54.1          69568      -1.00        1.78       1.78
- nonlop(apply)                100.984  21.8     57.439  22.1          69568      -1.00        1.76       1.76
- projbd                        66.947  14.5     39.772  15.3         106016      -1.00        1.68       1.68
- vtowfk(ssdiag)                14.832   3.2      4.724   1.8             -1      -1.00        3.14       3.14
- getghc-other                   3.608   0.8      1.865   0.7             -1      -1.00        1.93       1.93
- others (108)                   7.252   1.6      4.447   1.7             -1      -1.00        1.63       1.63
-<END_TIMER>
-
- subtotal                     444.132  96.0    248.736  95.7                                  1.79       1.79

- For major independent code sections, cpu and wall times (sec),
- as well as % of the total time and number of calls 

-<BEGIN_TIMER mpi_nprocs = 1, omp_nthreads = 1, mpi_rank = world>
- cpu_time =         462.7, wall_time =         259.8
-
- routine                         cpu     %       wall     %      number of calls Gflops    Speedup Efficacity
-                                                                  (-1=no count)
- fourwf%(pot)                 250.509  54.1    140.489  54.1          69568      -1.00        1.78       1.78
- nonlop(apply)                100.984  21.8     57.439  22.1          69568      -1.00        1.76       1.76
- projbd                        66.947  14.5     39.772  15.3         106016      -1.00        1.68       1.68
- vtowfk(ssdiag)                14.832   3.2      4.724   1.8             -1      -1.00        3.14       3.14
- getghc-other                   3.608   0.8      1.865   0.7             -1      -1.00        1.93       1.93
- others (108)                   7.252   1.6      4.447   1.7             -1      -1.00        1.63       1.63
-<END_TIMER>

- subtotal                     444.132  96.0    248.736  95.7                                  1.79       1.79

================================================================================

 Suggested references for the acknowledgment of ABINIT usage.

 The users of ABINIT have little formal obligations with respect to the ABINIT group
 (those specified in the GNU General Public License, http://www.gnu.org/copyleft/gpl.txt).
 However, it is common practice in the scientific literature,
 to acknowledge the efforts of people that have made the research possible.
 In this spirit, please find below suggested citations of work written by ABINIT developers,
 corresponding to implementations inside of ABINIT that you have used in the present run.
 Note also that it will be of great value to readers of publications presenting these results,
 to read papers enabling them to understand the theoretical formalism and details
 of the ABINIT implementation.
 For information on why they are suggested, see also http://www.abinit.org/about/?text=acknowledgments.
-
- [1] Recent developments in the ABINIT software package.
- Computer Phys. Comm. 205, 106 (2016).
- X.Gonze, F.Jollet, F.Abreu Araujo, D.Adams, B.Amadon, T.Applencourt,
- C.Audouze, J.-M.Beuken, J.Bieder, A.Bokhanchuk, E.Bousquet, F.Bruneval
- D.Caliste, M.Cote, F.Dahm, F.Da Pieve, M.Delaveau, M.Di Gennaro,
- B.Dorado, C.Espejo, G.Geneste, L.Genovese, A.Gerossier, M.Giantomassi,
- Y.Gillet, D.R.Hamann, L.He, G.Jomard, J.Laflamme Janssen, S.Le Roux,
- A.Levitt, A.Lherbier, F.Liu, I.Lukacevic, A.Martin, C.Martins,
- M.J.T.Oliveira, S.Ponce, Y.Pouillon, T.Rangel, G.-M.Rignanese,
- A.H.Romero, B.Rousseau, O.Rubel, A.A.Shukri, M.Stankovski, M.Torrent,
- M.J.Van Setten, B.Van Troeye, M.J.Verstraete, D.Waroquier, J.Wiktor,
- B.Xue, A.Zhou, J.W.Zwanziger.
- Comment : the fourth generic paper describing the ABINIT project.
- Note that a version of this paper, that is not formatted for Computer Phys. Comm. 
- is available at http://www.abinit.org/about/ABINIT16.pdf .
- The licence allows the authors to put it on the Web.
-
- [2] Optimized norm-conserving Vanderbilt pseudopotentials.
- D.R. Hamann, Phys. Rev. B 88, 085117 (2013).
- Comment: Some pseudopotential generated using the ONCVPSP code were used.
-
- [3] ABINIT : First-principles approach of materials and nanosystem properties.
- Computer Phys. Comm. 180, 2582-2615 (2009).
- X. Gonze, B. Amadon, P.-M. Anglade, J.-M. Beuken, F. Bottin, P. Boulanger, F. Bruneval,
- D. Caliste, R. Caracas, M. Cote, T. Deutsch, L. Genovese, Ph. Ghosez, M. Giantomassi
- S. Goedecker, D.R. Hamann, P. Hermet, F. Jollet, G. Jomard, S. Leroux, M. Mancini, S. Mazevet,
- M.J.T. Oliveira, G. Onida, Y. Pouillon, T. Rangel, G.-M. Rignanese, D. Sangalli, R. Shaltaf,
- M. Torrent, M.J. Verstraete, G. Zerah, J.W. Zwanziger
- Comment : the third generic paper describing the ABINIT project.
- Note that a version of this paper, that is not formatted for Computer Phys. Comm. 
- is available at http://www.abinit.org/about/ABINIT_CPC_v10.pdf .
- The licence allows the authors to put it on the Web.
-
- [4] A brief introduction to the ABINIT software package.
- Z. Kristallogr. 220, 558-562 (2005).
- X. Gonze, G.-M. Rignanese, M. Verstraete, J.-M. Beuken, Y. Pouillon, R. Caracas, F. Jollet,
- M. Torrent, G. Zerah, M. Mikami, Ph. Ghosez, M. Veithen, J.-Y. Raty, V. Olevano, F. Bruneval,
- L. Reining, R. Godby, G. Onida, D.R. Hamann, and D.C. Allan.
- Comment : the second generic paper describing the ABINIT project. Note that this paper
- should be cited especially if you are using the GW part of ABINIT, as several authors
- of this part are not in the list of authors of the first or third paper.
- The .pdf of the latter paper is available at http://www.abinit.org/about/zfk_0505-06_558-562.pdf.
- Note that it should not redistributed (Copyright by Oldenburg Wissenshaftverlag,
- the licence allows the authors to put it on the Web).
-
- And optionally:
-
- [5] First-principles computation of material properties : the ABINIT software project. 
- X. Gonze, J.-M. Beuken, R. Caracas, F. Detraux, M. Fuchs, G.-M. Rignanese, L. Sindic,
- M. Verstraete, G. Zerah, F. Jollet, M. Torrent, A. Roy, M. Mikami, Ph. Ghosez, J.-Y. Raty, D.C. Allan.
- Computational Materials Science 25, 478-492 (2002). http://dx.doi.org/10.1016/S0927-0256(02)00325-7
- Comment : the original paper describing the ABINIT project.
-
- Proc.   0 individual time (sec): cpu=        462.7  wall=        259.8

================================================================================

 Calculation completed.
.Delivered  92 WARNINGs and   2 COMMENTs to log file.
+Overall time at end (sec) : cpu=        462.7  wall=        259.8
