
.Version 8.4.1 of ABINIT 
.(sequential version, prepared for a x86_64_linux_gnu7.0 computer) 

.Copyright (C) 1998-2017 ABINIT group . 
 ABINIT comes with ABSOLUTELY NO WARRANTY.
 It is free software, and you are welcome to redistribute it
 under certain conditions (GNU General Public License,
 see ~abinit/COPYING or http://www.gnu.org/copyleft/gpl.txt).

 ABINIT is a project of the Universite Catholique de Louvain,
 Corning Inc. and other collaborators, see ~abinit/doc/developers/contributors.txt .
 Please read ~abinit/doc/users/acknowledgments.html for suggested
 acknowledgments of the ABINIT effort.
 For more information, see http://www.abinit.org .

.Starting date : Wed  9 Aug 2017.
- ( at 11h59 )
  
- input  file    -> mos2_5.in
- output file    -> mos2_5.out
- root for input  files -> mos2_5i
- root for output files -> mos2_5o


 DATASET    1 : space group P-6 m 2 (#187); Bravais hP (primitive hexag.)
================================================================================
 Values of the parameters that define the memory need for DATASET  1.
     intxc =       0    ionmov =       0      iscf =       7    lmnmax =       6
     lnmax =       6     mgfft =     144  mpssoang =       3    mqgrid =    7138
     natom =       3  nloc_mem =       1    nspden =       1   nspinor =       1
    nsppol =       1      nsym =      12    n1xccc =    2501    ntypat =       2
    occopt =       1   xclevel =       1
-    mband =          14        mffmem =           1         mkmem =          10
       mpw =        4122          nfft =       82944          nkpt =          10
================================================================================
P This job should need less than                      35.851 Mbytes of memory.
  Rough estimation (10% accuracy) of disk space for files :
_ WF disk file :      8.808 Mbytes ; DEN or POT disk file :      0.635 Mbytes.
================================================================================


 DATASET    2 : space group P-6 m 2 (#187); Bravais hP (primitive hexag.)
================================================================================
 Values of the parameters that define the memory need for DATASET  2.
     intxc =       0    ionmov =       0      iscf =      -2    lmnmax =       6
     lnmax =       6     mgfft =     144  mpssoang =       3    mqgrid =    7138
     natom =       3  nloc_mem =       1    nspden =       1   nspinor =       1
    nsppol =       1      nsym =      12    n1xccc =    2501    ntypat =       2
    occopt =       1   xclevel =       1
-    mband =          16        mffmem =           1         mkmem =          96
       mpw =        4133          nfft =       82944          nkpt =          96
================================================================================
P This job should need less than                     118.107 Mbytes of memory.
  Rough estimation (10% accuracy) of disk space for files :
_ WF disk file :     96.869 Mbytes ; DEN or POT disk file :      0.635 Mbytes.
================================================================================

--------------------------------------------------------------------------------
------------- Echo of variables that govern the present computation ------------
--------------------------------------------------------------------------------
-
- outvars: echo of selected default values                                      
-   iomode0 =  0 , fftalg0 =112 , wfoptalg0 =  0
-
- outvars: echo of global parameters not present in the input file              
-  max_nthreads =    0
-
 -outvars: echo values of preprocessed input variables --------
            acell      6.0564706910E+00  6.0564706910E+00  3.8453782165E+01 Bohr
              amu      9.59400000E+01  3.20660000E+01
           diemac      1.20000000E+01
             ecut      1.70000000E+01 Hartree
           enunit1          0
           enunit2          1
-          fftalg         112
           getden1          0
           getden2         -1
             iscf1          7
             iscf2         -2
           istwfk1       4    0    0    0    5    0    0    0    0    0
           istwfk2       2    0    0    0    0    0    0    0    0    0
                         0    0    0    0    0    0    0    0    0    0
                         0    0    0    0    0    0    0    0    0    0
                         0    0    0    0    0    3    0    0    0    0
                         0    0    0    0    0    0    0    0    0    0
                       outvar_i_n : Printing only first  50 k-points.
           jdtset        1    2
              kpt1     0.00000000E+00  0.00000000E+00  5.00000000E-01
                       1.25000000E-01  0.00000000E+00  5.00000000E-01
                       2.50000000E-01  0.00000000E+00  5.00000000E-01
                       3.75000000E-01  0.00000000E+00  5.00000000E-01
                       5.00000000E-01  0.00000000E+00  5.00000000E-01
                       1.25000000E-01  1.25000000E-01  5.00000000E-01
                       2.50000000E-01  1.25000000E-01  5.00000000E-01
                       3.75000000E-01  1.25000000E-01  5.00000000E-01
                       2.50000000E-01  2.50000000E-01  5.00000000E-01
                       3.75000000E-01  2.50000000E-01  5.00000000E-01
              kpt2     0.00000000E+00  0.00000000E+00  0.00000000E+00
                       1.42857143E-02  0.00000000E+00  0.00000000E+00
                       2.85714286E-02  0.00000000E+00  0.00000000E+00
                       4.28571429E-02  0.00000000E+00  0.00000000E+00
                       5.71428571E-02  0.00000000E+00  0.00000000E+00
                       7.14285714E-02  0.00000000E+00  0.00000000E+00
                       8.57142857E-02  0.00000000E+00  0.00000000E+00
                       1.00000000E-01  0.00000000E+00  0.00000000E+00
                       1.14285714E-01  0.00000000E+00  0.00000000E+00
                       1.28571429E-01  0.00000000E+00  0.00000000E+00
                       1.42857143E-01  0.00000000E+00  0.00000000E+00
                       1.57142857E-01  0.00000000E+00  0.00000000E+00
                       1.71428571E-01  0.00000000E+00  0.00000000E+00
                       1.85714286E-01  0.00000000E+00  0.00000000E+00
                       2.00000000E-01  0.00000000E+00  0.00000000E+00
                       2.14285714E-01  0.00000000E+00  0.00000000E+00
                       2.28571429E-01  0.00000000E+00  0.00000000E+00
                       2.42857143E-01  0.00000000E+00  0.00000000E+00
                       2.57142857E-01  0.00000000E+00  0.00000000E+00
                       2.71428571E-01  0.00000000E+00  0.00000000E+00
                       2.85714286E-01  0.00000000E+00  0.00000000E+00
                       3.00000000E-01  0.00000000E+00  0.00000000E+00
                       3.14285714E-01  0.00000000E+00  0.00000000E+00
                       3.28571429E-01  0.00000000E+00  0.00000000E+00
                       3.42857143E-01  0.00000000E+00  0.00000000E+00
                       3.57142857E-01  0.00000000E+00  0.00000000E+00
                       3.71428571E-01  0.00000000E+00  0.00000000E+00
                       3.85714286E-01  0.00000000E+00  0.00000000E+00
                       4.00000000E-01  0.00000000E+00  0.00000000E+00
                       4.14285714E-01  0.00000000E+00  0.00000000E+00
                       4.28571429E-01  0.00000000E+00  0.00000000E+00
                       4.42857143E-01  0.00000000E+00  0.00000000E+00
                       4.57142857E-01  0.00000000E+00  0.00000000E+00
                       4.71428571E-01  0.00000000E+00  0.00000000E+00
                       4.85714286E-01  0.00000000E+00  0.00000000E+00
                       5.00000000E-01  0.00000000E+00  0.00000000E+00
                       4.91666667E-01  1.66666667E-02  0.00000000E+00
                       4.83333333E-01  3.33333333E-02  0.00000000E+00
                       4.75000000E-01  5.00000000E-02  0.00000000E+00
                       4.66666667E-01  6.66666667E-02  0.00000000E+00
                       4.58333333E-01  8.33333333E-02  0.00000000E+00
                       4.50000000E-01  1.00000000E-01  0.00000000E+00
                       4.41666667E-01  1.16666667E-01  0.00000000E+00
                       4.33333333E-01  1.33333333E-01  0.00000000E+00
                       4.25000000E-01  1.50000000E-01  0.00000000E+00
                       4.16666667E-01  1.66666667E-01  0.00000000E+00
                       4.08333333E-01  1.83333333E-01  0.00000000E+00
                       4.00000000E-01  2.00000000E-01  0.00000000E+00
                       3.91666667E-01  2.16666667E-01  0.00000000E+00
                       3.83333333E-01  2.33333333E-01  0.00000000E+00
                       outvar_i_n : Printing only first  50 k-points.
           kptopt1          1
           kptopt2         -3
         kptrlatt        8    0    0      0    8    0      0    0    1
          kptrlen1     4.84517655E+01
          kptrlen2     3.00000000E+01
P           mkmem1         10
P           mkmem2         96
            natom           3
            nband1         14
            nband2         16
           nbdbuf1          0
           nbdbuf2          2
           ndtset           2
            ngfft          24      24     144
             nkpt1         10
             nkpt2         96
            nstep          10
             nsym          12
           ntypat           2
              occ      2.000000  2.000000  2.000000  2.000000  2.000000  2.000000
                       2.000000  2.000000  2.000000  2.000000  2.000000  2.000000
                       2.000000  0.000000
            rprim      1.0000000000E+00  0.0000000000E+00  0.0000000000E+00
                      -5.0000000000E-01  8.6602540378E-01  0.0000000000E+00
                       0.0000000000E+00  0.0000000000E+00  1.0000000000E+00
           shiftk1     0.00000000E+00  0.00000000E+00  5.00000000E-01
           shiftk2     5.00000000E-01  5.00000000E-01  5.00000000E-01
          spgroup         187
           symrel      1  0  0   0  1  0   0  0  1       0 -1  0  -1  0  0   0  0 -1
                      -1 -1  0   1  0  0   0  0 -1      -1  0  0   1  1  0   0  0  1
                       0  1  0  -1 -1  0   0  0  1       1  1  0   0 -1  0   0  0 -1
                       1  0  0   0  1  0   0  0 -1       0 -1  0  -1  0  0   0  0  1
                      -1 -1  0   1  0  0   0  0  1      -1  0  0   1  1  0   0  0 -1
                       0  1  0  -1 -1  0   0  0 -1       1  1  0   0 -1  0   0  0  1
           toldfe1     1.00000000E-06 Hartree
           toldfe2     0.00000000E+00 Hartree
           tolwfr1     0.00000000E+00
           tolwfr2     1.00000000E-12
            typat      1  2  2
              wtk1       0.01563    0.09375    0.09375    0.09375    0.04688    0.09375
                         0.18750    0.18750    0.09375    0.09375
              wtk2       1.00000    1.00000    1.00000    1.00000    1.00000    1.00000
                         1.00000    1.00000    1.00000    1.00000    1.00000    1.00000
                         1.00000    1.00000    1.00000    1.00000    1.00000    1.00000
                         1.00000    1.00000    1.00000    1.00000    1.00000    1.00000
                         1.00000    1.00000    1.00000    1.00000    1.00000    1.00000
                         1.00000    1.00000    1.00000    1.00000    1.00000    1.00000
                         1.00000    1.00000    1.00000    1.00000    1.00000    1.00000
                         1.00000    1.00000    1.00000    1.00000    1.00000    1.00000
                         1.00000    1.00000
                       outvars : Printing only first  50 k-points.
           xangst      1.2178034942E-27  7.0309917517E-28  1.6459063547E-19
                       1.6024731271E+00  9.2518829128E-01  1.6091498044E+00
                       1.6024731271E+00  9.2518829128E-01 -1.6091498044E+00
            xcart      2.3013150876E-27  1.3286648853E-27  3.1103122508E-19
                       3.0282353455E+00  1.7483524919E+00  3.0408524371E+00
                       3.0282353455E+00  1.7483524919E+00 -3.0408524371E+00
             xred      5.0663501458E-28  2.5331750729E-28  8.0884429974E-21
                       6.6666666667E-01  3.3333333333E-01  7.9078110549E-02
                       6.6666666667E-01  3.3333333333E-01 -7.9078110549E-02
            znucl       42.00000   16.00000

================================================================================

 chkinp: Checking input parameters for consistency, jdtset=   1.

 chkinp: Checking input parameters for consistency, jdtset=   2.

================================================================================
== DATASET  1 ==================================================================
-   nproc =    1

 Exchange-correlation functional for the present dataset will be:
  LDA: new Teter (4/93) with spin-polarized option - ixc=1
 Citation for XC functional:
  S. Goedecker, M. Teter, J. Huetter, PRB 54, 1703 (1996)

 Real(R)+Recip(G) space primitive vectors, cartesian coordinates (Bohr,Bohr^-1):
 R(1)=  6.0564707  0.0000000  0.0000000  G(1)=  0.1651127  0.0953278  0.0000000
 R(2)= -3.0282353  5.2450575  0.0000000  G(2)=  0.0000000  0.1906557  0.0000000
 R(3)=  0.0000000  0.0000000 38.4537822  G(3)=  0.0000000  0.0000000  0.0260052
 Unit cell volume ucvol=  1.2215435E+03 bohr^3
 Angles (23,13,12)=  9.00000000E+01  9.00000000E+01  1.20000000E+02 degrees

 getcut: wavevector=  0.0000  0.0000  0.0000  ngfft=  24  24 144
         ecut(hartree)=     17.000   => boxcut(ratio)=   2.01759

--- Pseudopotential description ------------------------------------------------
- pspini: atom type   1  psp file is ./42mo.hghsc
- pspatm: opening atomic psp file    ./42mo.hghsc
- Hartwigsen-Goedecker-Hutter psp for Mo,  from PRB58, 3641 (1998)
- 42.00000  14.00000     10605                znucl, zion, pspdat
    3    1    2    0      2001   0.00000      pspcod,pspxc,lmax,lloc,mmax,r2well
 rloc=   0.4300000
 cc1 =  16.2374520; cc2 =   1.4965360; cc3 =   0.0000000; cc4 =   0.0000000
 rrs =   0.3762550; h11s=   3.3624260; h22s=  -5.2892760; h33s=   0.0000000
 rrp =   0.3617340; h11p=  -0.3795710; h22p=  -4.0677130; h33p=   0.0000000
                    k11p=   0.3786810; k22p=  -0.1245610; k33p=   0.0000000
 rrd =   0.5258280; h11d=  -1.5432110; h22d=   1.0743880; h33d=   0.0000000
                    k11d=   0.0144600; k22d=  -0.0147690; k33d=   0.0000000
-  Local part computed in reciprocal space.

 pspatm : COMMENT -
  the projectors are not normalized,
  so that the KB energies are not consistent with 
  definition in PRB44, 8503 (1991). 
  However, this does not influence the results obtained hereafter.
 pspatm: epsatm=   42.21916586
         --- l  ekb(1:nproj) -->
             0   -1.085688    0.721857
             1   -0.208345    0.013056
             2   -0.256316    0.182427
 pspatm: atomic psp has been read  and splines computed

- pspini: atom type   2  psp file is ./S.psp8
- pspatm: opening atomic psp file    ./S.psp8
- S     ONCVPSP  r_core=  1.45  1.45  1.62
- 16.00000   6.00000    151027                znucl, zion, pspdat
    8   11    2    4       600   0.00000      pspcod,pspxc,lmax,lloc,mmax,r2well
    5.99000000000000    6.00000000000000    0.00000000000000   rchrg,fchrg,qchrg
     nproj     2     2     2
extension_switch     1
 pspatm: epsatm=    9.01629391
         --- l  ekb(1:nproj) -->
             0    6.687458    0.573856
             1    3.355342    0.912754
             2   -8.510942   -1.367258
 pspatm: atomic psp has been read  and splines computed

   1.56654560E+03                                ecore*ucvol(ha*bohr**3)
--------------------------------------------------------------------------------

_setup2: Arith. and geom. avg. npw (full set) are    4087.500    4087.461

================================================================================

     iter   Etot(hartree)      deltaE(h)  residm     vres2
 ETOT  1  -88.338334744888    -8.834E+01 8.470E-02 2.925E+03
 ETOT  2  -87.892638684567     4.457E-01 6.323E-03 1.337E+04
 ETOT  3  -90.017536794391    -2.125E+00 1.924E-02 6.813E+01
 ETOT  4  -90.057189980332    -3.965E-02 3.925E-03 1.003E+01
 ETOT  5  -90.057431488085    -2.415E-04 5.332E-03 2.686E+01
 ETOT  6  -90.058184305390    -7.528E-04 2.590E-03 4.349E+00
 ETOT  7  -90.058384611820    -2.003E-04 4.875E-03 3.085E+00
 ETOT  8  -90.058398165610    -1.355E-05 2.116E-03 3.693E+00
 ETOT  9  -90.058393260034     4.906E-06 2.369E-03 8.424E-01
 ETOT 10  -90.058544619747    -1.514E-04 6.865E-04 5.793E-02

 Cartesian components of stress tensor (hartree/bohr^3)
  sigma(1 1)=  5.58664358E-04  sigma(3 2)=  0.00000000E+00
  sigma(2 2)=  5.58664358E-04  sigma(3 1)=  0.00000000E+00
  sigma(3 3)=  5.79260860E-04  sigma(2 1)=  0.00000000E+00


 scprqt:  WARNING -
  nstep=   10 was not enough SCF cycles to converge;
  maximum energy difference=  1.514E-04 exceeds toldfe=  1.000E-06

 Integrated electronic density in atomic spheres:
 ------------------------------------------------
 Atom  Sphere_radius  Integrated_density
    1        2.00000         10.49853245
    2        2.00000          3.82314751
    3        2.00000          3.82314751
================================================================================

 ----iterations are completed or convergence reached----

 Mean square residual over all n,k,spin=   9.4243E-06; max=  6.8648E-04
 reduced coordinates (array xred) for    3 atoms
       0.000000000000      0.000000000000      0.000000000000
       0.666666666667      0.333333333333      0.079078110549
       0.666666666667      0.333333333333     -0.079078110549
 rms dE/dt=  4.4014E-01; max dE/dt=  9.3368E-01; dE/dt below (all hartree)
    1       0.000000000000      0.000000000000      0.000000000000
    2       0.000000000000      0.000000000000      0.933678253668
    3       0.000000000000      0.000000000000     -0.933678253668

 cartesian coordinates (angstrom) at end:
    1      0.00000000000000     0.00000000000000     0.00000000000000
    2      1.60247312708526     0.92518829128708     1.60914980438335
    3      1.60247312708526     0.92518829128708    -1.60914980438335

 cartesian forces (hartree/bohr) at end:
    1      0.00000000000000     0.00000000000000    -0.00000000000000
    2     -0.00000000000000    -0.00000000000000    -0.02428053109735
    3     -0.00000000000000    -0.00000000000000     0.02428053109735
 frms,max,avg= 1.1445952E-02 2.4280531E-02   0.000E+00  0.000E+00  0.000E+00 h/b

 cartesian forces (eV/Angstrom) at end:
    1      0.00000000000000     0.00000000000000    -0.00000000000000
    2     -0.00000000000000    -0.00000000000000    -1.24855500442881
    3     -0.00000000000000    -0.00000000000000     1.24855500442881
 frms,max,avg= 5.8857447E-01 1.2485550E+00   0.000E+00  0.000E+00  0.000E+00 e/A
 length scales=  6.056470691000  6.056470691000 38.453782165000 bohr
              =  3.204946254171  3.204946254171 20.348865105803 angstroms
 prteigrs : about to open file mos2_5o_DS1_EIG
 Fermi (or HOMO) energy (hartree) =  -0.10163   Average Vxc (hartree)=  -0.14610
 Eigenvalues (hartree) for nkpt=  10  k points:
 kpt#   1, nband= 14, wtk=  0.01563, kpt=  0.0000  0.0000  0.5000 (reduced coord)
  -2.26502   -1.35316   -1.34519   -1.34519   -0.60448   -0.56278   -0.29444   -0.18419
  -0.18419   -0.16328   -0.14618   -0.14618   -0.10295    0.00260
 prteigrs : prtvol=0 or 1, do not print more k-points.


--------------------------------------------------------------------------------
 Components of total free energy (in Hartree) :

    Kinetic energy  =  2.95019013006870E+01
    Hartree energy  =  2.79696958908273E+02
    XC energy       = -1.40029457768394E+01
    Ewald energy    =  2.03720290751498E+02
    PspCore energy  =  1.28243129264760E+00
    Loc. psp. energy= -5.84749501705844E+02
    NL   psp  energy= -5.50767939016957E+00
    >>>>>>>>> Etotal= -9.00585446197474E+01

 Other information on the energy :
    Total energy(eV)= -2.45061762752088E+03 ; Band energy (Ha)=  -1.7596145374E+01
--------------------------------------------------------------------------------

 Cartesian components of stress tensor (hartree/bohr^3)
  sigma(1 1)=  5.58664358E-04  sigma(3 2)=  0.00000000E+00
  sigma(2 2)=  5.58664358E-04  sigma(3 1)=  0.00000000E+00
  sigma(3 3)=  5.79260860E-04  sigma(2 1)=  0.00000000E+00

-Cartesian components of stress tensor (GPa)         [Pressure= -1.6638E+01 GPa]
- sigma(1 1)=  1.64364701E+01  sigma(3 2)=  0.00000000E+00
- sigma(2 2)=  1.64364701E+01  sigma(3 1)=  0.00000000E+00
- sigma(3 3)=  1.70424400E+01  sigma(2 1)=  0.00000000E+00

================================================================================
== DATASET  2 ==================================================================
-   nproc =    1

 mkfilename : getden/=0, take file _DEN from output of DATASET   1.

 Exchange-correlation functional for the present dataset will be:
  LDA: new Teter (4/93) with spin-polarized option - ixc=1
 Citation for XC functional:
  S. Goedecker, M. Teter, J. Huetter, PRB 54, 1703 (1996)

 Real(R)+Recip(G) space primitive vectors, cartesian coordinates (Bohr,Bohr^-1):
 R(1)=  6.0564707  0.0000000  0.0000000  G(1)=  0.1651127  0.0953278  0.0000000
 R(2)= -3.0282353  5.2450575  0.0000000  G(2)=  0.0000000  0.1906557  0.0000000
 R(3)=  0.0000000  0.0000000 38.4537822  G(3)=  0.0000000  0.0000000  0.0260052
 Unit cell volume ucvol=  1.2215435E+03 bohr^3
 Angles (23,13,12)=  9.00000000E+01  9.00000000E+01  1.20000000E+02 degrees

 getcut: wavevector=  0.0000  0.0000  0.0000  ngfft=  24  24 144
         ecut(hartree)=     17.000   => boxcut(ratio)=   2.01759
--------------------------------------------------------------------------------


================================================================================
 prteigrs : about to open file mos2_5o_DS2_EIG
 Non-SCF case, kpt    1 (  0.00000  0.00000  0.00000), residuals and eigenvalues=
  6.70E-13  3.61E-13  8.07E-13  6.56E-13  9.69E-13  3.88E-13  5.03E-13  3.62E-13
  7.98E-13  8.43E-13  9.25E-13  6.32E-13  1.18E-10  4.77E-09  3.93E-05  4.64E-09
 -2.2605E+00 -1.3492E+00 -1.3415E+00 -1.3415E+00 -6.0397E-01 -5.6250E-01
 -2.9333E-01 -1.8230E-01 -1.8230E-01 -1.6294E-01 -1.4453E-01 -1.4453E-01
 -1.0113E-01  2.8247E-03  3.3487E-03  8.6723E-03
  prteigrs : nnsclo,ikpt=   10    1 max resid (incl. the buffer)=  3.92724E-05
 Non-SCF case, kpt    2 (  0.01429  0.00000  0.00000), residuals and eigenvalues=
  8.77E-13  4.57E-13  2.56E-13  1.79E-13  7.49E-13  3.20E-13  5.15E-13  2.95E-13
  7.06E-13  5.64E-13  6.71E-12  4.46E-12  8.48E-12  7.74E-07  1.13E-04  2.17E-07
 -2.2610E+00 -1.3494E+00 -1.3416E+00 -1.3415E+00 -6.0390E-01 -5.6247E-01
 -2.9323E-01 -1.8257E-01 -1.8219E-01 -1.6358E-01 -1.4472E-01 -1.4407E-01
 -1.0116E-01  2.7153E-03  5.0072E-03  8.5037E-03
  prteigrs : nnsclo,ikpt=   10    2 max resid (incl. the buffer)=  1.13289E-04
 Non-SCF case, kpt    3 (  0.02857  0.00000  0.00000), residuals and eigenvalues=
  7.69E-13  2.76E-13  3.50E-13  6.13E-13  8.07E-13  8.66E-13  9.34E-13  7.83E-13
  7.25E-13  4.69E-13  3.46E-12  1.77E-12  4.32E-10  1.48E-05  4.33E-05  4.00E-07
 -2.2610E+00 -1.3494E+00 -1.3417E+00 -1.3416E+00 -6.0357E-01 -5.6232E-01
 -2.9284E-01 -1.8334E-01 -1.8185E-01 -1.6532E-01 -1.4527E-01 -1.4281E-01
 -1.0126E-01  2.4314E-03  4.6799E-03  7.2563E-03
  prteigrs : nnsclo,ikpt=   10    3 max resid (incl. the buffer)=  4.33043E-05
 Non-SCF case, kpt    4 (  0.04286  0.00000  0.00000), residuals and eigenvalues=
  8.35E-13  3.37E-13  2.50E-13  4.58E-13  5.79E-13  9.52E-13  4.82E-13  4.86E-13
  2.63E-13  6.79E-13  2.64E-12  3.97E-13  1.53E-10  2.19E-06  6.24E-06  2.41E-05
 -2.2607E+00 -1.3493E+00 -1.3418E+00 -1.3416E+00 -6.0303E-01 -5.6207E-01
 -2.9219E-01 -1.8462E-01 -1.8129E-01 -1.6780E-01 -1.4616E-01 -1.4114E-01
 -1.0143E-01  1.0142E-03  5.2275E-03  6.0465E-03
  prteigrs : nnsclo,ikpt=   10    4 max resid (incl. the buffer)=  2.40631E-05
 Non-SCF case, kpt    5 (  0.05714  0.00000  0.00000), residuals and eigenvalues=
  8.51E-13  2.57E-13  3.32E-13  6.35E-13  7.17E-13  3.24E-13  6.81E-13  9.26E-13
  9.15E-13  3.87E-13  4.53E-12  4.35E-13  5.24E-10  5.01E-05  2.30E-06  2.35E-06
 -2.2609E+00 -1.3493E+00 -1.3420E+00 -1.3416E+00 -6.0230E-01 -5.6173E-01
 -2.9132E-01 -1.8637E-01 -1.8050E-01 -1.7076E-01 -1.4739E-01 -1.3937E-01
 -1.0171E-01  2.2248E-04  3.2768E-03  6.2209E-03
  prteigrs : nnsclo,ikpt=   10    5 max resid (incl. the buffer)=  5.00926E-05
 Non-SCF case, kpt    6 (  0.07143  0.00000  0.00000), residuals and eigenvalues=
  3.98E-13  2.91E-13  2.52E-13  4.86E-13  7.42E-13  8.18E-13  4.53E-13  5.13E-13
  4.12E-13  3.17E-13  1.09E-12  4.59E-13  2.29E-10  5.87E-05  4.36E-06  7.64E-06
 -2.2606E+00 -1.3493E+00 -1.3422E+00 -1.3416E+00 -6.0134E-01 -5.6129E-01
 -2.9019E-01 -1.8855E-01 -1.7950E-01 -1.7401E-01 -1.4891E-01 -1.3768E-01
 -1.0208E-01 -1.3637E-03  6.2982E-04  6.5339E-03
  prteigrs : nnsclo,ikpt=   10    6 max resid (incl. the buffer)=  5.87017E-05
 Non-SCF case, kpt    7 (  0.08571  0.00000  0.00000), residuals and eigenvalues=
  3.64E-13  4.30E-13  3.00E-13  4.66E-13  4.33E-13  8.27E-13  4.35E-13  3.72E-13
  2.87E-13  6.48E-13  8.51E-13  1.27E-12  9.47E-11  1.75E-05  4.81E-05  1.24E-04
 -2.2606E+00 -1.3492E+00 -1.3424E+00 -1.3417E+00 -6.0018E-01 -5.6075E-01
 -2.8884E-01 -1.9112E-01 -1.7828E-01 -1.7747E-01 -1.5071E-01 -1.3621E-01
 -1.0260E-01 -2.6495E-03 -2.2174E-03  7.1578E-03
  prteigrs : nnsclo,ikpt=   10    7 max resid (incl. the buffer)=  1.24216E-04
 Non-SCF case, kpt    8 (  0.10000  0.00000  0.00000), residuals and eigenvalues=
  6.48E-13  3.13E-13  5.69E-13  2.40E-13  3.97E-13  7.35E-13  7.32E-13  6.58E-13
  4.70E-13  7.67E-13  5.34E-13  2.15E-12  2.63E-11  1.04E-07  5.98E-05  1.06E-05
 -2.2607E+00 -1.3492E+00 -1.3428E+00 -1.3419E+00 -5.9883E-01 -5.6013E-01
 -2.8729E-01 -1.9403E-01 -1.8106E-01 -1.7688E-01 -1.5274E-01 -1.3507E-01
 -1.0329E-01 -5.5260E-03 -4.0579E-03  3.2438E-03
  prteigrs : nnsclo,ikpt=   10    8 max resid (incl. the buffer)=  5.98185E-05
 Non-SCF case, kpt    9 (  0.11429  0.00000  0.00000), residuals and eigenvalues=
  7.20E-13  2.08E-13  7.53E-13  5.82E-13  5.04E-13  6.64E-13  8.94E-13  3.24E-13
  4.04E-13  2.01E-13  5.64E-13  6.87E-13  2.09E-11  4.04E-06  3.45E-06  3.18E-05
 -2.2610E+00 -1.3492E+00 -1.3432E+00 -1.3419E+00 -5.9730E-01 -5.5942E-01
 -2.8558E-01 -1.9721E-01 -1.8476E-01 -1.7528E-01 -1.5496E-01 -1.3431E-01
 -1.0418E-01 -8.6278E-03 -5.5279E-03  1.9235E-03
  prteigrs : nnsclo,ikpt=   10    9 max resid (incl. the buffer)=  3.17656E-05
 Non-SCF case, kpt   10 (  0.12857  0.00000  0.00000), residuals and eigenvalues=
  5.81E-13  2.77E-13  6.85E-13  4.55E-13  5.34E-13  6.94E-13  5.92E-13  3.14E-13
  7.76E-13  3.16E-13  1.62E-12  5.30E-13  4.46E-10  2.57E-06  3.46E-06  2.31E-05
 -2.2607E+00 -1.3491E+00 -1.3435E+00 -1.3420E+00 -5.9556E-01 -5.5863E-01
 -2.8368E-01 -2.0060E-01 -1.8852E-01 -1.7349E-01 -1.5734E-01 -1.3396E-01
 -1.0529E-01 -1.1637E-02 -6.2958E-03  1.3066E-04
  prteigrs : nnsclo,ikpt=   10   10 max resid (incl. the buffer)=  2.30913E-05
 Non-SCF case, kpt   11 (  0.14286  0.00000  0.00000), residuals and eigenvalues=
  6.43E-13  5.74E-13  8.51E-13  7.62E-13  7.23E-13  8.07E-13  4.53E-13  6.75E-13
  7.60E-13  7.54E-13  8.64E-13  9.12E-13  1.13E-11  6.77E-07  4.39E-06  1.89E-06
 -2.2603E+00 -1.3490E+00 -1.3440E+00 -1.3421E+00 -5.9364E-01 -5.5773E-01
 -2.8165E-01 -2.0418E-01 -1.9236E-01 -1.7153E-01 -1.5984E-01 -1.3405E-01
 -1.0663E-01 -1.4433E-02 -6.6787E-03 -1.6381E-03
  prteigrs : nnsclo,ikpt=   10   11 max resid (incl. the buffer)=  4.38905E-06
 Non-SCF case, kpt   12 (  0.15714  0.00000  0.00000), residuals and eigenvalues=
  5.47E-13  6.34E-13  6.64E-13  4.87E-13  4.62E-13  5.38E-13  7.97E-13  5.99E-13
  4.39E-13  2.39E-13  4.83E-13  5.23E-13  3.59E-11  6.17E-07  3.02E-06  1.64E-05
 -2.2603E+00 -1.3489E+00 -1.3445E+00 -1.3421E+00 -5.9156E-01 -5.5678E-01
 -2.7958E-01 -2.0783E-01 -1.9624E-01 -1.6942E-01 -1.6244E-01 -1.3459E-01
 -1.0825E-01 -1.6942E-02 -6.6145E-03 -3.3105E-03
  prteigrs : nnsclo,ikpt=   10   12 max resid (incl. the buffer)=  1.63622E-05
 Non-SCF case, kpt   13 (  0.17143  0.00000  0.00000), residuals and eigenvalues=
  4.39E-13  5.00E-13  8.19E-13  7.24E-13  3.32E-13  7.89E-13  8.00E-13  4.31E-13
  6.08E-13  8.67E-13  6.93E-13  3.51E-13  4.37E-11  4.76E-07  3.45E-07  1.30E-05
 -2.2606E+00 -1.3488E+00 -1.3451E+00 -1.3424E+00 -5.8932E-01 -5.5575E-01
 -2.7748E-01 -2.1154E-01 -2.0019E-01 -1.6719E-01 -1.6510E-01 -1.3553E-01
 -1.1014E-01 -1.9085E-02 -6.0964E-03 -5.0338E-03
  prteigrs : nnsclo,ikpt=   10   13 max resid (incl. the buffer)=  1.29772E-05
 Non-SCF case, kpt   14 (  0.18571  0.00000  0.00000), residuals and eigenvalues=
  4.10E-13  5.34E-13  7.26E-13  8.08E-13  8.29E-13  2.89E-13  9.14E-13  4.19E-13
  9.72E-13  7.82E-13  3.57E-13  9.96E-13  5.90E-13  6.62E-08  1.05E-05  2.20E-07
 -2.2606E+00 -1.3487E+00 -1.3456E+00 -1.3425E+00 -5.8695E-01 -5.5466E-01
 -2.7546E-01 -2.1516E-01 -2.0416E-01 -1.6779E-01 -1.6483E-01 -1.3682E-01
 -1.1227E-01 -2.0809E-02 -6.7431E-03 -5.0796E-03
  prteigrs : nnsclo,ikpt=   10   14 max resid (incl. the buffer)=  1.04684E-05
 Non-SCF case, kpt   15 (  0.20000  0.00000  0.00000), residuals and eigenvalues=
  3.35E-13  5.01E-13  2.86E-13  2.89E-13  3.81E-13  5.74E-13  4.01E-13  6.07E-13
  5.72E-13  8.18E-13  4.07E-13  7.02E-13  3.17E-12  3.37E-08  1.62E-06  4.01E-07
 -2.2603E+00 -1.3486E+00 -1.3461E+00 -1.3426E+00 -5.8442E-01 -5.5351E-01
 -2.7357E-01 -2.1863E-01 -2.0817E-01 -1.7049E-01 -1.6238E-01 -1.3841E-01
 -1.1457E-01 -2.2075E-02 -8.4190E-03 -3.6253E-03
  prteigrs : nnsclo,ikpt=   10   15 max resid (incl. the buffer)=  1.62188E-06
 Non-SCF case, kpt   16 (  0.21429  0.00000  0.00000), residuals and eigenvalues=
  3.64E-13  3.07E-13  3.29E-13  1.38E-13  8.68E-13  5.31E-13  4.83E-13  5.01E-13
  3.33E-13  3.50E-13  9.33E-13  5.97E-13  2.31E-11  1.34E-07  3.86E-06  4.47E-06
 -2.2601E+00 -1.3484E+00 -1.3466E+00 -1.3427E+00 -5.8179E-01 -5.5230E-01
 -2.7192E-01 -2.2188E-01 -2.1220E-01 -1.7318E-01 -1.5984E-01 -1.4022E-01
 -1.1701E-01 -2.2912E-02 -1.0002E-02 -1.7508E-03
  prteigrs : nnsclo,ikpt=   10   16 max resid (incl. the buffer)=  4.46704E-06
 Non-SCF case, kpt   17 (  0.22857  0.00000  0.00000), residuals and eigenvalues=
  4.00E-13  3.97E-13  3.82E-13  6.65E-13  6.35E-13  4.65E-13  2.91E-13  9.11E-13
  5.19E-13  9.83E-13  3.13E-13  9.15E-13  2.90E-12  1.87E-08  5.44E-06  1.54E-07
 -2.2597E+00 -1.3483E+00 -1.3471E+00 -1.3428E+00 -5.7904E-01 -5.5105E-01
 -2.7066E-01 -2.2478E-01 -2.1625E-01 -1.7583E-01 -1.5725E-01 -1.4221E-01
 -1.1950E-01 -2.3312E-02 -1.1470E-02  4.3564E-04
  prteigrs : nnsclo,ikpt=   10   17 max resid (incl. the buffer)=  5.44152E-06
 Non-SCF case, kpt   18 (  0.24286  0.00000  0.00000), residuals and eigenvalues=
  4.30E-13  3.30E-13  2.98E-13  6.70E-13  5.99E-13  7.45E-13  4.52E-13  5.13E-13
  8.00E-13  5.31E-13  5.60E-13  7.17E-13  1.58E-11  2.79E-08  5.27E-07  1.29E-05
 -2.2592E+00 -1.3481E+00 -1.3476E+00 -1.3429E+00 -5.7619E-01 -5.4976E-01
 -2.6989E-01 -2.2724E-01 -2.2029E-01 -1.7842E-01 -1.5462E-01 -1.4430E-01
 -1.2194E-01 -2.3299E-02 -1.2834E-02  2.9553E-03
  prteigrs : nnsclo,ikpt=   10   18 max resid (incl. the buffer)=  1.28540E-05
 Non-SCF case, kpt   19 (  0.25714  0.00000  0.00000), residuals and eigenvalues=
  5.45E-13  7.55E-13  9.09E-13  3.38E-13  8.75E-13  3.26E-13  4.72E-13  9.84E-13
  8.58E-13  6.96E-13  2.36E-12  6.80E-13  1.44E-12  4.17E-07  1.24E-05  1.35E-07
 -2.2587E+00 -1.3481E+00 -1.3480E+00 -1.3429E+00 -5.7329E-01 -5.4844E-01
 -2.6975E-01 -2.2919E-01 -2.2432E-01 -1.8093E-01 -1.5198E-01 -1.4643E-01
 -1.2423E-01 -2.2920E-02 -1.4040E-02  5.6065E-03
  prteigrs : nnsclo,ikpt=   10   19 max resid (incl. the buffer)=  1.23590E-05
 Non-SCF case, kpt   20 (  0.27143  0.00000  0.00000), residuals and eigenvalues=
  3.21E-13  4.82E-13  8.84E-13  7.65E-13  3.00E-13  6.57E-13  9.87E-13  4.08E-13
  7.96E-13  4.74E-13  5.16E-13  5.56E-13  3.54E-13  2.73E-08  5.29E-07  1.68E-07
 -2.2588E+00 -1.3487E+00 -1.3479E+00 -1.3431E+00 -5.7035E-01 -5.4711E-01
 -2.7029E-01 -2.3064E-01 -2.2833E-01 -1.8338E-01 -1.4939E-01 -1.4855E-01
 -1.2629E-01 -2.2210E-02 -1.5137E-02  8.4452E-03
  prteigrs : nnsclo,ikpt=   10   20 max resid (incl. the buffer)=  5.28629E-07
 Non-SCF case, kpt   21 (  0.28571  0.00000  0.00000), residuals and eigenvalues=
  9.09E-13  5.46E-13  6.07E-13  9.88E-13  3.99E-13  8.15E-13  9.51E-13  8.94E-13
  8.57E-13  8.81E-13  7.75E-13  8.99E-13  4.15E-12  1.25E-07  2.93E-07  2.73E-06
 -2.2582E+00 -1.3491E+00 -1.3477E+00 -1.3432E+00 -5.6735E-01 -5.4577E-01
 -2.7147E-01 -2.3229E-01 -2.3156E-01 -1.8572E-01 -1.5061E-01 -1.4685E-01
 -1.2800E-01 -2.1186E-02 -1.6020E-02  1.1396E-02
  prteigrs : nnsclo,ikpt=   10   21 max resid (incl. the buffer)=  2.73455E-06
 Non-SCF case, kpt   22 (  0.30000  0.00000  0.00000), residuals and eigenvalues=
  5.83E-13  9.87E-13  5.87E-13  4.57E-13  6.90E-13  7.91E-13  9.84E-13  6.22E-13
  9.86E-13  8.84E-13  5.22E-13  5.96E-13  6.98E-13  2.03E-09  6.56E-08  1.93E-06
 -2.2578E+00 -1.3495E+00 -1.3476E+00 -1.3434E+00 -5.6436E-01 -5.4443E-01
 -2.7322E-01 -2.3616E-01 -2.3213E-01 -1.8796E-01 -1.5259E-01 -1.4437E-01
 -1.2930E-01 -1.9927E-02 -1.6750E-02  1.4384E-02
  prteigrs : nnsclo,ikpt=   10   22 max resid (incl. the buffer)=  1.93209E-06
 Non-SCF case, kpt   23 (  0.31429  0.00000  0.00000), residuals and eigenvalues=
  4.16E-13  3.37E-13  7.05E-13  4.33E-13  9.73E-13  4.15E-13  6.52E-13  9.62E-13
  3.42E-13  4.14E-13  7.88E-13  5.23E-13  3.60E-13  9.10E-08  5.45E-08  2.07E-06
 -2.2583E+00 -1.3501E+00 -1.3476E+00 -1.3435E+00 -5.6141E-01 -5.4311E-01
 -2.7542E-01 -2.3994E-01 -2.3254E-01 -1.9009E-01 -1.5447E-01 -1.4200E-01
 -1.3013E-01 -1.8483E-02 -1.7312E-02  1.7334E-02
  prteigrs : nnsclo,ikpt=   10   23 max resid (incl. the buffer)=  2.07105E-06
 Non-SCF case, kpt   24 (  0.32857  0.00000  0.00000), residuals and eigenvalues=
  6.40E-13  5.86E-13  6.03E-13  2.88E-13  5.74E-13  3.93E-13  4.96E-13  6.32E-13
  9.12E-13  5.96E-13  4.01E-13  5.04E-13  1.74E-12  1.15E-06  8.74E-09  1.26E-06
 -2.2583E+00 -1.3507E+00 -1.3475E+00 -1.3437E+00 -5.5849E-01 -5.4182E-01
 -2.7792E-01 -2.4358E-01 -2.3285E-01 -1.9208E-01 -1.5623E-01 -1.3974E-01
 -1.3044E-01 -1.7670E-02 -1.6863E-02  2.0232E-02
  prteigrs : nnsclo,ikpt=   10   24 max resid (incl. the buffer)=  1.25724E-06
 Non-SCF case, kpt   25 (  0.34286  0.00000  0.00000), residuals and eigenvalues=
  4.66E-13  8.65E-13  9.96E-13  4.87E-13  4.74E-13  4.10E-13  4.68E-13  4.50E-13
  2.25E-13  7.69E-13  8.54E-13  9.08E-13  2.33E-12  4.87E-06  1.07E-07  1.01E-06
 -2.2578E+00 -1.3510E+00 -1.3474E+00 -1.3438E+00 -5.5562E-01 -5.4056E-01
 -2.8057E-01 -2.4706E-01 -2.3316E-01 -1.9394E-01 -1.5783E-01 -1.3762E-01
 -1.3024E-01 -1.7847E-02 -1.5098E-02  2.3025E-02
  prteigrs : nnsclo,ikpt=   10   25 max resid (incl. the buffer)=  4.86982E-06
 Non-SCF case, kpt   26 (  0.35714  0.00000  0.00000), residuals and eigenvalues=
  5.33E-13  5.30E-13  3.89E-13  9.13E-13  9.07E-13  4.40E-13  5.64E-13  3.19E-13
  7.60E-13  9.96E-13  9.90E-13  8.45E-13  5.03E-13  4.10E-07  2.04E-07  9.20E-06
 -2.2575E+00 -1.3514E+00 -1.3473E+00 -1.3438E+00 -5.5286E-01 -5.3935E-01
 -2.8329E-01 -2.5036E-01 -2.3357E-01 -1.9566E-01 -1.5929E-01 -1.3566E-01
 -1.2958E-01 -1.7881E-02 -1.3226E-02  2.5688E-02
  prteigrs : nnsclo,ikpt=   10   26 max resid (incl. the buffer)=  9.19793E-06
 Non-SCF case, kpt   27 (  0.37143  0.00000  0.00000), residuals and eigenvalues=
  4.90E-13  2.77E-13  6.35E-13  4.72E-13  9.41E-13  4.35E-13  3.25E-13  7.49E-13
  5.19E-13  5.62E-13  6.11E-13  5.65E-12  4.89E-12  3.93E-05  2.83E-06  1.61E-04
 -2.2581E+00 -1.3520E+00 -1.3474E+00 -1.3440E+00 -5.5025E-01 -5.3821E-01
 -2.8601E-01 -2.5346E-01 -2.3410E-01 -1.9724E-01 -1.6061E-01 -1.3388E-01
 -1.2852E-01 -1.7745E-02 -1.1300E-02  2.8940E-02
  prteigrs : nnsclo,ikpt=   10   27 max resid (incl. the buffer)=  1.61174E-04
 Non-SCF case, kpt   28 (  0.38571  0.00000  0.00000), residuals and eigenvalues=
  6.00E-13  5.68E-13  5.26E-13  2.83E-13  5.28E-13  1.93E-13  4.37E-13  3.47E-13
  9.65E-13  7.41E-13  8.57E-13  2.28E-12  9.95E-13  2.87E-05  7.91E-08  2.55E-05
 -2.2576E+00 -1.3522E+00 -1.3473E+00 -1.3440E+00 -5.4778E-01 -5.3714E-01
 -2.8861E-01 -2.5630E-01 -2.3471E-01 -1.9866E-01 -1.6178E-01 -1.3228E-01
 -1.2715E-01 -1.7512E-02 -9.3302E-03  3.0379E-02
  prteigrs : nnsclo,ikpt=   10   28 max resid (incl. the buffer)=  2.87390E-05
 Non-SCF case, kpt   29 (  0.40000  0.00000  0.00000), residuals and eigenvalues=
  4.03E-13  7.93E-13  5.75E-13  7.39E-13  9.37E-13  6.48E-13  1.99E-13  7.84E-13
  6.27E-13  8.82E-13  8.57E-13  5.12E-13  8.57E-13  1.38E-06  9.90E-07  2.18E-05
 -2.2578E+00 -1.3527E+00 -1.3472E+00 -1.3441E+00 -5.4551E-01 -5.3617E-01
 -2.9108E-01 -2.5888E-01 -2.3538E-01 -1.9992E-01 -1.6280E-01 -1.3087E-01
 -1.2559E-01 -1.7268E-02 -7.3832E-03  3.2321E-02
  prteigrs : nnsclo,ikpt=   10   29 max resid (incl. the buffer)=  2.18460E-05
 Non-SCF case, kpt   30 (  0.41429  0.00000  0.00000), residuals and eigenvalues=
  5.82E-13  4.99E-13  6.68E-13  2.74E-13  6.26E-13  4.09E-13  3.74E-13  9.72E-13
  6.55E-13  5.00E-13  6.89E-13  9.30E-13  1.57E-12  4.62E-06  4.12E-08  2.42E-07
 -2.2578E+00 -1.3531E+00 -1.3471E+00 -1.3442E+00 -5.4348E-01 -5.3529E-01
 -2.9331E-01 -2.6117E-01 -2.3607E-01 -2.0103E-01 -1.6367E-01 -1.2965E-01
 -1.2393E-01 -1.6903E-02 -5.4951E-03  3.3973E-02
  prteigrs : nnsclo,ikpt=   10   30 max resid (incl. the buffer)=  4.62353E-06
 Non-SCF case, kpt   31 (  0.42857  0.00000  0.00000), residuals and eigenvalues=
  6.56E-13  5.40E-13  3.47E-13  7.03E-13  6.61E-13  3.94E-13  6.57E-13  4.14E-13
  4.41E-13  7.58E-13  8.48E-13  2.14E-12  5.90E-13  5.03E-06  6.90E-08  1.85E-05
 -2.2575E+00 -1.3533E+00 -1.3470E+00 -1.3442E+00 -5.4168E-01 -5.3453E-01
 -2.9529E-01 -2.6314E-01 -2.3672E-01 -2.0197E-01 -1.6440E-01 -1.2862E-01
 -1.2229E-01 -1.6511E-02 -3.7131E-03  3.5509E-02
  prteigrs : nnsclo,ikpt=   10   31 max resid (incl. the buffer)=  1.84720E-05
 Non-SCF case, kpt   32 (  0.44286  0.00000  0.00000), residuals and eigenvalues=
  5.71E-13  1.42E-13  3.68E-13  9.54E-13  6.04E-13  6.65E-13  3.64E-13  5.16E-13
  6.01E-13  9.01E-13  8.40E-13  4.01E-13  4.58E-13  1.50E-06  1.54E-07  3.61E-05
 -2.2574E+00 -1.3535E+00 -1.3470E+00 -1.3443E+00 -5.4017E-01 -5.3389E-01
 -2.9696E-01 -2.6478E-01 -2.3734E-01 -2.0274E-01 -1.6499E-01 -1.2778E-01
 -1.2079E-01 -1.6159E-02 -2.1202E-03  3.6955E-02
  prteigrs : nnsclo,ikpt=   10   32 max resid (incl. the buffer)=  3.60625E-05
 Non-SCF case, kpt   33 (  0.45714  0.00000  0.00000), residuals and eigenvalues=
  4.67E-13  6.47E-13  6.15E-13  3.46E-13  7.53E-13  1.95E-13  2.95E-13  2.96E-13
  5.05E-13  5.53E-13  6.17E-13  1.58E-12  4.46E-12  1.02E-05  2.52E-06  5.35E-07
 -2.2573E+00 -1.3537E+00 -1.3469E+00 -1.3443E+00 -5.3897E-01 -5.3339E-01
 -2.9830E-01 -2.6608E-01 -2.3785E-01 -2.0334E-01 -1.6544E-01 -1.2713E-01
 -1.1951E-01 -1.5821E-02 -7.6903E-04  3.7509E-02
  prteigrs : nnsclo,ikpt=   10   33 max resid (incl. the buffer)=  1.02239E-05
 Non-SCF case, kpt   34 (  0.47143  0.00000  0.00000), residuals and eigenvalues=
  3.86E-13  9.23E-13  3.79E-13  3.18E-13  8.24E-13  7.85E-13  9.78E-13  5.58E-13
  6.16E-13  6.00E-13  4.92E-13  3.64E-12  2.10E-12  1.26E-05  1.99E-06  5.58E-06
 -2.2577E+00 -1.3540E+00 -1.3469E+00 -1.3444E+00 -5.3812E-01 -5.3302E-01
 -2.9932E-01 -2.6702E-01 -2.3823E-01 -2.0377E-01 -1.6576E-01 -1.2668E-01
 -1.1854E-01 -1.5585E-02  2.3784E-04  3.8182E-02
  prteigrs : nnsclo,ikpt=   10   34 max resid (incl. the buffer)=  1.26138E-05
 Non-SCF case, kpt   35 (  0.48571  0.00000  0.00000), residuals and eigenvalues=
  4.25E-13  2.90E-13  5.05E-13  5.83E-13  1.66E-13  2.47E-13  6.18E-13  7.93E-13
  3.74E-13  6.52E-13  3.69E-13  4.80E-12  5.73E-12  1.23E-05  4.31E-06  1.33E-04
 -2.2574E+00 -1.3541E+00 -1.3468E+00 -1.3444E+00 -5.3758E-01 -5.3280E-01
 -2.9990E-01 -2.6758E-01 -2.3847E-01 -2.0403E-01 -1.6595E-01 -1.2640E-01
 -1.1793E-01 -1.5417E-02  9.0095E-04  3.9094E-02
  prteigrs : nnsclo,ikpt=   10   35 max resid (incl. the buffer)=  1.33182E-04
 Non-SCF case, kpt   36 (  0.50000  0.00000  0.00000), residuals and eigenvalues=
  4.51E-13  4.29E-13  9.09E-13  4.45E-13  6.74E-13  4.60E-13  1.92E-13  4.57E-13
  7.47E-13  5.63E-13  6.42E-13  3.75E-13  1.81E-12  4.37E-06  4.57E-06  1.29E-05
 -2.2578E+00 -1.3541E+00 -1.3468E+00 -1.3445E+00 -5.3741E-01 -5.3273E-01
 -3.0011E-01 -2.6777E-01 -2.3856E-01 -2.0412E-01 -1.6602E-01 -1.2631E-01
 -1.1773E-01 -1.5410E-02  1.1287E-03  3.8769E-02
  prteigrs : nnsclo,ikpt=   10   36 max resid (incl. the buffer)=  1.28974E-05
 Non-SCF case, kpt   37 (  0.49167  0.01667  0.00000), residuals and eigenvalues=
  4.09E-13  4.46E-13  5.65E-13  6.94E-13  2.06E-13  2.77E-13  5.87E-13  8.55E-13
  3.91E-13  6.74E-13  9.85E-13  3.24E-12  1.35E-11  1.23E-05  7.82E-06  4.90E-05
 -2.2574E+00 -1.3541E+00 -1.3468E+00 -1.3444E+00 -5.3735E-01 -5.3269E-01
 -2.9996E-01 -2.6785E-01 -2.3850E-01 -2.0420E-01 -1.6597E-01 -1.2775E-01
 -1.1680E-01 -1.5326E-02  1.1978E-03  3.9390E-02
  prteigrs : nnsclo,ikpt=   10   37 max resid (incl. the buffer)=  4.89888E-05
 Non-SCF case, kpt   38 (  0.48333  0.03333  0.00000), residuals and eigenvalues=
  4.08E-13  7.17E-13  4.42E-13  4.64E-13  4.49E-13  3.36E-13  2.93E-13  7.33E-13
  9.00E-13  7.38E-13  6.04E-13  2.81E-12  1.62E-11  4.56E-05  2.94E-05  3.04E-05
 -2.2578E+00 -1.3541E+00 -1.3468E+00 -1.3446E+00 -5.3721E-01 -5.3260E-01
 -2.9953E-01 -2.6809E-01 -2.3834E-01 -2.0448E-01 -1.6585E-01 -1.3110E-01
 -1.1501E-01 -1.5190E-02  1.4592E-03  3.9710E-02
  prteigrs : nnsclo,ikpt=   10   38 max resid (incl. the buffer)=  4.56177E-05
 Non-SCF case, kpt   39 (  0.47500  0.05000  0.00000), residuals and eigenvalues=
  7.29E-13  9.29E-13  6.75E-13  7.63E-13  5.29E-13  6.19E-13  6.00E-13  8.42E-13
  5.86E-13  9.63E-13  4.52E-13  8.93E-13  1.48E-11  7.65E-06  8.22E-06  1.54E-05
 -2.2574E+00 -1.3539E+00 -1.3468E+00 -1.3446E+00 -5.3697E-01 -5.3244E-01
 -2.9879E-01 -2.6849E-01 -2.3806E-01 -2.0486E-01 -1.6567E-01 -1.3540E-01
 -1.1319E-01 -1.5115E-02  1.7781E-03  4.0659E-02
  prteigrs : nnsclo,ikpt=   10   39 max resid (incl. the buffer)=  1.53621E-05
 Non-SCF case, kpt   40 (  0.46667  0.06667  0.00000), residuals and eigenvalues=
  5.85E-13  2.11E-13  8.47E-13  4.80E-13  5.48E-13  7.57E-13  6.46E-13  3.71E-13
  9.21E-13  7.80E-13  5.34E-13  4.05E-12  2.81E-10  1.21E-04  1.02E-04  3.55E-05
 -2.2572E+00 -1.3539E+00 -1.3467E+00 -1.3447E+00 -5.3663E-01 -5.3223E-01
 -2.9777E-01 -2.6904E-01 -2.3768E-01 -2.0534E-01 -1.6547E-01 -1.4038E-01
 -1.1158E-01 -1.4853E-02  2.6508E-03  4.2756E-02
  prteigrs : nnsclo,ikpt=   10   40 max resid (incl. the buffer)=  1.20856E-04
 Non-SCF case, kpt   41 (  0.45833  0.08333  0.00000), residuals and eigenvalues=
  2.18E-13  3.74E-13  1.91E-13  9.34E-13  8.65E-13  4.05E-13  7.63E-13  3.91E-13
  5.73E-13  5.49E-13  5.28E-13  4.14E-13  2.64E-10  1.53E-05  1.13E-04  9.16E-06
 -2.2573E+00 -1.3538E+00 -1.3467E+00 -1.3449E+00 -5.3622E-01 -5.3196E-01
 -2.9650E-01 -2.6976E-01 -2.3723E-01 -2.0583E-01 -1.6529E-01 -1.4587E-01
 -1.1022E-01 -1.5080E-02  3.4612E-03  4.1379E-02
  prteigrs : nnsclo,ikpt=   10   41 max resid (incl. the buffer)=  1.13233E-04
 Non-SCF case, kpt   42 (  0.45000  0.10000  0.00000), residuals and eigenvalues=
  6.65E-13  3.11E-13  4.89E-13  6.76E-13  3.72E-13  3.30E-13  5.24E-13  7.48E-13
  3.15E-13  9.08E-13  7.66E-13  2.64E-13  4.76E-12  3.29E-06  1.67E-06  1.65E-04
 -2.2572E+00 -1.3537E+00 -1.3466E+00 -1.3451E+00 -5.3572E-01 -5.3163E-01
 -2.9492E-01 -2.7065E-01 -2.3669E-01 -2.0630E-01 -1.6519E-01 -1.5179E-01
 -1.0905E-01 -1.5342E-02  4.2040E-03  4.0912E-02
  prteigrs : nnsclo,ikpt=   10   42 max resid (incl. the buffer)=  1.64734E-04
 Non-SCF case, kpt   43 (  0.44167  0.11667  0.00000), residuals and eigenvalues=
  6.23E-13  9.41E-13  8.32E-13  5.54E-13  4.21E-13  6.56E-13  8.53E-13  2.32E-13
  4.82E-13  4.74E-13  7.08E-13  8.19E-13  2.37E-11  9.77E-07  3.82E-04  3.15E-04
 -2.2566E+00 -1.3535E+00 -1.3466E+00 -1.3452E+00 -5.3515E-01 -5.3127E-01
 -2.9307E-01 -2.7168E-01 -2.3609E-01 -2.0666E-01 -1.6518E-01 -1.5802E-01
 -1.0799E-01 -1.5801E-02  6.7603E-03  3.7400E-02
  prteigrs : nnsclo,ikpt=   10   43 max resid (incl. the buffer)=  3.82166E-04
 Non-SCF case, kpt   44 (  0.43333  0.13333  0.00000), residuals and eigenvalues=
  6.13E-13  7.11E-13  2.53E-13  7.24E-13  4.07E-13  9.23E-13  8.10E-13  8.70E-13
  8.48E-13  5.87E-13  9.87E-13  6.07E-13  1.44E-10  6.91E-07  1.87E-04  3.19E-05
 -2.2565E+00 -1.3533E+00 -1.3465E+00 -1.3455E+00 -5.3453E-01 -5.3087E-01
 -2.9099E-01 -2.7286E-01 -2.3544E-01 -2.0689E-01 -1.6532E-01 -1.6451E-01
 -1.0704E-01 -1.6551E-02  7.5361E-03  3.0642E-02
  prteigrs : nnsclo,ikpt=   10   44 max resid (incl. the buffer)=  1.86766E-04
 Non-SCF case, kpt   45 (  0.42500  0.15000  0.00000), residuals and eigenvalues=
  3.71E-13  2.02E-13  9.18E-13  9.19E-13  3.20E-13  4.71E-13  9.14E-13  5.02E-13
  8.13E-13  7.75E-13  9.41E-13  7.50E-13  2.70E-10  1.35E-05  1.23E-04  2.31E-04
 -2.2564E+00 -1.3530E+00 -1.3465E+00 -1.3458E+00 -5.3385E-01 -5.3044E-01
 -2.8866E-01 -2.7416E-01 -2.3477E-01 -2.0695E-01 -1.7115E-01 -1.6563E-01
 -1.0611E-01 -1.7549E-02  9.2295E-03  2.7940E-02
  prteigrs : nnsclo,ikpt=   10   45 max resid (incl. the buffer)=  2.30775E-04
 Non-SCF case, kpt   46 (  0.41667  0.16667  0.00000), residuals and eigenvalues=
  3.77E-13  7.85E-13  3.35E-13  9.79E-13  8.80E-13  2.86E-13  8.82E-13  9.30E-13
  6.17E-13  5.26E-13  6.77E-13  6.08E-13  1.49E-10  7.41E-06  2.45E-04  4.92E-04
 -2.2564E+00 -1.3529E+00 -1.3465E+00 -1.3461E+00 -5.3315E-01 -5.2999E-01
 -2.8613E-01 -2.7555E-01 -2.3410E-01 -2.0682E-01 -1.7787E-01 -1.6611E-01
 -1.0518E-01 -1.8814E-02  1.1425E-02  2.4298E-02
  prteigrs : nnsclo,ikpt=   10   46 max resid (incl. the buffer)=  4.92024E-04
 Non-SCF case, kpt   47 (  0.40833  0.18333  0.00000), residuals and eigenvalues=
  3.63E-13  6.66E-13  2.67E-13  3.42E-13  8.76E-13  2.87E-13  8.26E-13  9.28E-13
  3.84E-13  5.70E-13  3.29E-13  8.81E-13  2.40E-10  7.21E-07  9.17E-05  3.10E-06
 -2.2563E+00 -1.3526E+00 -1.3465E+00 -1.3464E+00 -5.3243E-01 -5.2953E-01
 -2.8338E-01 -2.7699E-01 -2.3346E-01 -2.0648E-01 -1.8458E-01 -1.6678E-01
 -1.0418E-01 -2.0288E-02  1.3093E-02  2.0125E-02
  prteigrs : nnsclo,ikpt=   10   47 max resid (incl. the buffer)=  9.16595E-05
 Non-SCF case, kpt   48 (  0.40000  0.20000  0.00000), residuals and eigenvalues=
  6.64E-13  2.31E-13  8.68E-13  4.32E-13  9.51E-13  3.83E-13  5.83E-13  8.38E-13
  7.67E-13  5.51E-13  8.84E-13  5.45E-13  3.17E-11  1.53E-07  6.81E-06  2.14E-06
 -2.2567E+00 -1.3524E+00 -1.3470E+00 -1.3466E+00 -5.3169E-01 -5.2908E-01
 -2.8043E-01 -2.7845E-01 -2.3290E-01 -2.0598E-01 -1.9119E-01 -1.6765E-01
 -1.0310E-01 -2.1946E-02  1.5113E-02  1.7162E-02
  prteigrs : nnsclo,ikpt=   10   48 max resid (incl. the buffer)=  6.81006E-06
 Non-SCF case, kpt   49 (  0.39167  0.21667  0.00000), residuals and eigenvalues=
  3.10E-13  2.61E-13  4.48E-13  2.47E-13  8.56E-13  2.78E-13  4.84E-13  9.34E-13
  8.23E-13  3.69E-13  5.06E-13  8.73E-13  3.00E-11  5.66E-06  5.43E-06  3.54E-05
 -2.2568E+00 -1.3522E+00 -1.3474E+00 -1.3466E+00 -5.3098E-01 -5.2864E-01
 -2.7989E-01 -2.7734E-01 -2.3246E-01 -2.0527E-01 -1.9758E-01 -1.6868E-01
 -1.0193E-01 -2.3727E-02  1.4593E-02  1.7298E-02
  prteigrs : nnsclo,ikpt=   10   49 max resid (incl. the buffer)=  3.54154E-05
 Non-SCF case, kpt   50 (  0.38333  0.23333  0.00000), residuals and eigenvalues=
  3.21E-13  2.54E-13  2.78E-13  9.50E-13  8.98E-13  9.20E-13  5.91E-13  3.13E-13
  8.77E-13  9.09E-13  5.19E-13  5.51E-13  3.06E-11  1.82E-06  5.06E-06  2.85E-05
 -2.2569E+00 -1.3519E+00 -1.3478E+00 -1.3466E+00 -5.3030E-01 -5.2821E-01
 -2.8125E-01 -2.7410E-01 -2.3221E-01 -2.0442E-01 -2.0361E-01 -1.6984E-01
 -1.0070E-01 -2.5548E-02  1.2386E-02  1.9338E-02
  prteigrs : nnsclo,ikpt=   10   50 max resid (incl. the buffer)=  2.84910E-05
 Non-SCF case, kpt   51 (  0.37500  0.25000  0.00000), residuals and eigenvalues=
  9.32E-13  2.84E-13  9.42E-13  2.75E-13  3.48E-13  2.71E-13  3.87E-13  6.77E-13
  6.81E-13  2.87E-13  7.09E-13  8.52E-13  1.71E-12  1.01E-07  9.57E-07  4.34E-06
 -2.2572E+00 -1.3517E+00 -1.3482E+00 -1.3466E+00 -5.2966E-01 -5.2783E-01
 -2.8251E-01 -2.7079E-01 -2.3232E-01 -2.0907E-01 -2.0346E-01 -1.7110E-01
 -9.9443E-02 -2.7352E-02  1.0549E-02  2.1274E-02
  prteigrs : nnsclo,ikpt=   10   51 max resid (incl. the buffer)=  4.33991E-06
 Non-SCF case, kpt   52 (  0.36667  0.26667  0.00000), residuals and eigenvalues=
  3.88E-13  7.13E-13  7.19E-13  6.14E-13  3.20E-13  5.38E-13  6.51E-13  7.01E-13
  5.51E-13  5.00E-13  6.30E-13  9.54E-13  4.65E-11  1.66E-07  1.27E-06  1.26E-05
 -2.2569E+00 -1.3514E+00 -1.3486E+00 -1.3464E+00 -5.2910E-01 -5.2748E-01
 -2.8361E-01 -2.6745E-01 -2.3296E-01 -2.1365E-01 -2.0244E-01 -1.7237E-01
 -9.8196E-02 -2.9012E-02  9.1352E-03  2.3062E-02
  prteigrs : nnsclo,ikpt=   10   52 max resid (incl. the buffer)=  1.25670E-05
 Non-SCF case, kpt   53 (  0.35833  0.28333  0.00000), residuals and eigenvalues=
  5.30E-13  4.26E-13  4.17E-13  9.86E-13  4.43E-13  3.27E-13  8.20E-13  5.06E-13
  7.05E-13  9.26E-13  4.19E-13  5.03E-13  2.55E-11  7.28E-08  1.53E-07  1.07E-05
 -2.2565E+00 -1.3512E+00 -1.3488E+00 -1.3463E+00 -5.2862E-01 -5.2719E-01
 -2.8452E-01 -2.6419E-01 -2.3433E-01 -2.1703E-01 -2.0146E-01 -1.7357E-01
 -9.7055E-02 -3.0479E-02  8.0908E-03  2.4553E-02
  prteigrs : nnsclo,ikpt=   10   53 max resid (incl. the buffer)=  1.06803E-05
 Non-SCF case, kpt   54 (  0.35000  0.30000  0.00000), residuals and eigenvalues=
  5.85E-13  2.72E-13  5.37E-13  7.63E-13  3.63E-13  7.28E-13  3.81E-13  6.44E-13
  3.94E-13  3.86E-13  9.07E-13  1.00E-12  8.89E-13  6.97E-09  3.41E-08  4.73E-07
 -2.2562E+00 -1.3510E+00 -1.3490E+00 -1.3462E+00 -5.2825E-01 -5.2698E-01
 -2.8521E-01 -2.6123E-01 -2.3633E-01 -2.1907E-01 -2.0061E-01 -1.7460E-01
 -9.6119E-02 -3.1641E-02  7.3739E-03  2.5685E-02
  prteigrs : nnsclo,ikpt=   10   54 max resid (incl. the buffer)=  4.72800E-07
 Non-SCF case, kpt   55 (  0.34167  0.31667  0.00000), residuals and eigenvalues=
  4.65E-13  5.36E-13  8.72E-13  3.62E-13  4.18E-13  3.47E-13  5.81E-13  5.18E-13
  6.10E-13  6.02E-13  3.95E-13  7.22E-13  2.74E-11  4.13E-09  5.19E-08  1.22E-06
 -2.2564E+00 -1.3509E+00 -1.3493E+00 -1.3462E+00 -5.2802E-01 -5.2684E-01
 -2.8564E-01 -2.5902E-01 -2.3827E-01 -2.2003E-01 -2.0002E-01 -1.7532E-01
 -9.5498E-02 -3.2400E-02  6.9746E-03  2.6414E-02
  prteigrs : nnsclo,ikpt=   10   55 max resid (incl. the buffer)=  1.21776E-06
 Non-SCF case, kpt   56 (  0.33333  0.33333  0.00000), residuals and eigenvalues=
  4.27E-13  3.07E-13  6.96E-13  6.75E-13  4.70E-13  8.39E-13  9.76E-13  3.56E-13
  7.02E-13  7.26E-13  9.06E-13  6.05E-13  2.00E-12  3.46E-09  2.70E-08  1.81E-06
 -2.2562E+00 -1.3508E+00 -1.3493E+00 -1.3462E+00 -5.2794E-01 -5.2679E-01
 -2.8579E-01 -2.5816E-01 -2.3910E-01 -2.2028E-01 -1.9980E-01 -1.7557E-01
 -9.5269E-02 -3.2665E-02  6.8558E-03  2.6682E-02
  prteigrs : nnsclo,ikpt=   10   56 max resid (incl. the buffer)=  1.81344E-06
 Non-SCF case, kpt   57 (  0.32500  0.32500  0.00000), residuals and eigenvalues=
  4.27E-13  2.95E-13  2.37E-13  3.43E-13  9.71E-13  5.12E-13  7.37E-13  2.85E-13
  8.52E-13  5.86E-13  6.58E-13  7.37E-13  8.88E-12  5.57E-09  1.25E-07  9.71E-07
 -2.2564E+00 -1.3509E+00 -1.3493E+00 -1.3462E+00 -5.2803E-01 -5.2684E-01
 -2.8564E-01 -2.5900E-01 -2.3823E-01 -2.2009E-01 -2.0004E-01 -1.7529E-01
 -9.5514E-02 -3.2394E-02  6.9552E-03  2.6403E-02
  prteigrs : nnsclo,ikpt=   10   57 max resid (incl. the buffer)=  9.70942E-07
 Non-SCF case, kpt   58 (  0.31667  0.31667  0.00000), residuals and eigenvalues=
  4.19E-13  3.83E-13  3.63E-13  8.33E-13  5.20E-13  6.09E-13  3.79E-13  6.61E-13
  4.84E-13  5.51E-13  6.61E-13  6.53E-13  8.84E-12  3.25E-08  3.30E-08  1.12E-06
 -2.2562E+00 -1.3509E+00 -1.3491E+00 -1.3462E+00 -5.2830E-01 -5.2700E-01
 -2.8515E-01 -2.6106E-01 -2.3596E-01 -2.1957E-01 -2.0072E-01 -1.7445E-01
 -9.6244E-02 -3.1585E-02  7.2572E-03  2.5561E-02
  prteigrs : nnsclo,ikpt=   10   58 max resid (incl. the buffer)=  1.11803E-06
 Non-SCF case, kpt   59 (  0.30833  0.30833  0.00000), residuals and eigenvalues=
  9.56E-13  4.94E-13  6.37E-13  9.55E-13  7.41E-13  9.62E-13  8.39E-13  8.92E-13
  8.10E-13  6.64E-13  9.13E-13  3.30E-13  3.06E-11  3.46E-08  7.01E-06  4.33E-05
 -2.2567E+00 -1.3512E+00 -1.3489E+00 -1.3464E+00 -5.2879E-01 -5.2726E-01
 -2.8434E-01 -2.6365E-01 -2.3305E-01 -2.1875E-01 -2.0178E-01 -1.7310E-01
 -9.7464E-02 -3.0313E-02  7.6898E-03  2.4209E-02
  prteigrs : nnsclo,ikpt=   10   59 max resid (incl. the buffer)=  4.33412E-05
 Non-SCF case, kpt   60 (  0.30000  0.30000  0.00000), residuals and eigenvalues=
  7.30E-13  5.93E-13  3.06E-13  3.20E-13  9.27E-13  2.39E-13  3.65E-13  7.95E-13
  9.21E-13  3.79E-13  7.62E-13  6.35E-13  8.52E-12  2.99E-08  1.39E-07  3.50E-06
 -2.2568E+00 -1.3513E+00 -1.3486E+00 -1.3465E+00 -5.2948E-01 -5.2763E-01
 -2.8316E-01 -2.6628E-01 -2.3002E-01 -2.1749E-01 -2.0311E-01 -1.7134E-01
 -9.9083E-02 -2.8698E-02  8.1828E-03  2.2177E-02
  prteigrs : nnsclo,ikpt=   10   60 max resid (incl. the buffer)=  3.49665E-06
 Non-SCF case, kpt   61 (  0.29167  0.29167  0.00000), residuals and eigenvalues=
  6.12E-13  8.12E-13  7.74E-13  5.14E-13  5.71E-13  3.98E-13  5.67E-13  8.36E-13
  7.37E-13  3.88E-13  4.67E-13  7.93E-13  2.75E-11  3.90E-07  1.82E-07  1.37E-05
 -2.2572E+00 -1.3516E+00 -1.3483E+00 -1.3465E+00 -5.3042E-01 -5.2811E-01
 -2.8163E-01 -2.6875E-01 -2.2735E-01 -2.1563E-01 -2.0461E-01 -1.6925E-01
 -1.0103E-01 -2.6833E-02  8.7128E-03  1.9718E-02
  prteigrs : nnsclo,ikpt=   10   61 max resid (incl. the buffer)=  1.37138E-05
 Non-SCF case, kpt   62 (  0.28333  0.28333  0.00000), residuals and eigenvalues=
  4.30E-13  2.55E-13  5.80E-13  3.53E-13  5.72E-13  8.57E-13  4.98E-13  4.37E-13
  6.25E-13  5.42E-13  6.60E-13  7.14E-13  4.96E-12  4.86E-08  9.34E-07  4.12E-06
 -2.2574E+00 -1.3517E+00 -1.3481E+00 -1.3465E+00 -5.3158E-01 -5.2871E-01
 -2.7974E-01 -2.7090E-01 -2.2530E-01 -2.1301E-01 -2.0615E-01 -1.6694E-01
 -1.0320E-01 -2.4897E-02  9.1968E-03  1.6836E-02
  prteigrs : nnsclo,ikpt=   10   62 max resid (incl. the buffer)=  4.12415E-06
 Non-SCF case, kpt   63 (  0.27500  0.27500  0.00000), residuals and eigenvalues=
  7.51E-13  3.77E-13  5.72E-13  6.77E-13  4.03E-13  1.94E-13  8.80E-13  6.99E-13
  5.96E-13  4.94E-13  9.61E-13  6.51E-13  7.49E-13  6.70E-07  5.57E-07  1.33E-05
 -2.2571E+00 -1.3517E+00 -1.3477E+00 -1.3465E+00 -5.3296E-01 -5.2941E-01
 -2.7749E-01 -2.7265E-01 -2.2393E-01 -2.0967E-01 -2.0769E-01 -1.6446E-01
 -1.0548E-01 -2.3078E-02  9.5875E-03  1.3742E-02
  prteigrs : nnsclo,ikpt=   10   63 max resid (incl. the buffer)=  1.32715E-05
 Non-SCF case, kpt   64 (  0.26667  0.26667  0.00000), residuals and eigenvalues=
  3.64E-13  5.14E-13  3.35E-13  9.23E-13  4.27E-13  3.38E-13  5.57E-13  7.63E-13
  5.07E-13  5.60E-13  7.53E-13  7.29E-13  7.77E-11  9.55E-07  1.02E-06  6.81E-05
 -2.2577E+00 -1.3518E+00 -1.3475E+00 -1.3467E+00 -5.3459E-01 -5.3023E-01
 -2.7490E-01 -2.7403E-01 -2.2312E-01 -2.0916E-01 -2.0585E-01 -1.6190E-01
 -1.0782E-01 -2.1547E-02  9.7847E-03  1.0607E-02
  prteigrs : nnsclo,ikpt=   10   64 max resid (incl. the buffer)=  6.81101E-05
 Non-SCF case, kpt   65 (  0.25833  0.25833  0.00000), residuals and eigenvalues=
  4.97E-13  2.30E-13  3.26E-13  3.56E-13  2.20E-13  4.85E-13  5.50E-13  6.79E-13
  8.92E-13  7.86E-13  5.86E-13  5.29E-13  1.47E-10  1.31E-06  8.09E-05  1.19E-05
 -2.2575E+00 -1.3517E+00 -1.3471E+00 -1.3468E+00 -5.3642E-01 -5.3113E-01
 -2.7497E-01 -2.7195E-01 -2.2265E-01 -2.1050E-01 -2.0175E-01 -1.5925E-01
 -1.1011E-01 -2.0436E-02  7.4563E-03  9.8153E-03
  prteigrs : nnsclo,ikpt=   10   65 max resid (incl. the buffer)=  8.09325E-05
 Non-SCF case, kpt   66 (  0.25000  0.25000  0.00000), residuals and eigenvalues=
  5.39E-13  2.41E-13  5.90E-13  9.55E-13  8.78E-13  5.69E-13  8.80E-13  3.23E-13
  4.93E-13  4.56E-13  5.64E-13  6.04E-13  5.02E-12  1.97E-07  1.23E-05  3.69E-08
 -2.2575E+00 -1.3516E+00 -1.3468E+00 -1.3468E+00 -5.3848E-01 -5.3213E-01
 -2.7551E-01 -2.6868E-01 -2.2252E-01 -2.1168E-01 -1.9750E-01 -1.5659E-01
 -1.1230E-01 -1.9931E-02  4.3499E-03  9.5679E-03
  prteigrs : nnsclo,ikpt=   10   66 max resid (incl. the buffer)=  1.22839E-05
 Non-SCF case, kpt   67 (  0.24167  0.24167  0.00000), residuals and eigenvalues=
  6.90E-13  1.12E-13  3.83E-13  8.06E-13  7.47E-13  2.07E-13  6.49E-13  8.33E-13
  7.44E-13  7.24E-13  9.03E-13  5.56E-13  3.96E-11  1.14E-06  7.37E-05  3.15E-06
 -2.2568E+00 -1.3513E+00 -1.3468E+00 -1.3464E+00 -5.4072E-01 -5.3321E-01
 -2.7563E-01 -2.6509E-01 -2.2261E-01 -2.1264E-01 -1.9320E-01 -1.5393E-01
 -1.1433E-01 -2.0122E-02  2.0062E-03  9.0965E-03
  prteigrs : nnsclo,ikpt=   10   67 max resid (incl. the buffer)=  7.37020E-05
 Non-SCF case, kpt   68 (  0.23333  0.23333  0.00000), residuals and eigenvalues=
  5.69E-13  2.57E-13  8.46E-13  7.35E-13  6.57E-13  7.91E-13  6.72E-13  6.16E-13
  5.51E-13  7.44E-13  4.34E-13  4.42E-13  1.20E-11  1.22E-07  2.89E-05  2.16E-06
 -2.2568E+00 -1.3512E+00 -1.3469E+00 -1.3460E+00 -5.4314E-01 -5.3437E-01
 -2.7541E-01 -2.6122E-01 -2.2296E-01 -2.1341E-01 -1.8893E-01 -1.5131E-01
 -1.1620E-01 -2.1051E-02 -2.5344E-04  8.3190E-03
  prteigrs : nnsclo,ikpt=   10   68 max resid (incl. the buffer)=  2.88526E-05
 Non-SCF case, kpt   69 (  0.22500  0.22500  0.00000), residuals and eigenvalues=
  4.10E-13  3.00E-13  7.28E-13  4.66E-13  3.29E-13  4.16E-13  3.02E-13  4.84E-13
  6.42E-13  1.99E-13  5.41E-13  9.54E-13  5.07E-11  6.32E-08  2.23E-05  9.25E-07
 -2.2571E+00 -1.3509E+00 -1.3470E+00 -1.3458E+00 -5.4573E-01 -5.3561E-01
 -2.7485E-01 -2.5708E-01 -2.2353E-01 -2.1391E-01 -1.8473E-01 -1.4876E-01
 -1.1787E-01 -2.2579E-02 -1.8587E-03  7.2735E-03
  prteigrs : nnsclo,ikpt=   10   69 max resid (incl. the buffer)=  2.22905E-05
 Non-SCF case, kpt   70 (  0.21667  0.21667  0.00000), residuals and eigenvalues=
  7.75E-13  3.53E-13  6.12E-13  4.54E-13  8.24E-13  1.66E-13  2.47E-13  4.79E-13
  3.87E-13  4.08E-13  9.53E-13  7.56E-13  1.86E-12  1.11E-08  2.27E-06  4.63E-07
 -2.2573E+00 -1.3507E+00 -1.3471E+00 -1.3455E+00 -5.4846E-01 -5.3690E-01
 -2.7399E-01 -2.5271E-01 -2.2431E-01 -2.1415E-01 -1.8063E-01 -1.4629E-01
 -1.1935E-01 -2.4426E-02 -3.1949E-03  6.0167E-03
  prteigrs : nnsclo,ikpt=   10   70 max resid (incl. the buffer)=  2.27158E-06
 Non-SCF case, kpt   71 (  0.20833  0.20833  0.00000), residuals and eigenvalues=
  6.24E-13  7.28E-13  2.26E-13  4.78E-13  9.28E-13  2.81E-13  6.68E-13  7.44E-13
  8.35E-13  7.05E-13  3.50E-13  3.74E-13  7.68E-13  1.21E-08  1.37E-06  4.53E-08
 -2.2578E+00 -1.3506E+00 -1.3472E+00 -1.3453E+00 -5.5132E-01 -5.3823E-01
 -2.7290E-01 -2.4813E-01 -2.2525E-01 -2.1410E-01 -1.7669E-01 -1.4393E-01
 -1.2064E-01 -2.6366E-02 -4.3267E-03  4.5546E-03
  prteigrs : nnsclo,ikpt=   10   71 max resid (incl. the buffer)=  1.37265E-06
 Non-SCF case, kpt   72 (  0.20000  0.20000  0.00000), residuals and eigenvalues=
  3.97E-13  9.51E-13  2.11E-13  2.57E-13  5.25E-13  5.97E-13  5.22E-13  9.71E-13
  8.46E-13  3.02E-13  8.51E-13  6.39E-13  2.90E-11  2.13E-07  4.09E-05  4.62E-07
 -2.2583E+00 -1.3504E+00 -1.3473E+00 -1.3451E+00 -5.5426E-01 -5.3960E-01
 -2.7165E-01 -2.4341E-01 -2.2629E-01 -2.1372E-01 -1.7296E-01 -1.4170E-01
 -1.2174E-01 -2.8147E-02 -5.3043E-03  2.9557E-03
  prteigrs : nnsclo,ikpt=   10   72 max resid (incl. the buffer)=  4.09146E-05
 Non-SCF case, kpt   73 (  0.19167  0.19167  0.00000), residuals and eigenvalues=
  3.55E-13  5.62E-13  5.63E-13  1.23E-13  9.40E-13  4.36E-13  6.38E-13  9.78E-13
  4.82E-13  6.05E-13  8.95E-13  8.71E-13  4.16E-12  1.96E-07  5.71E-05  6.24E-06
 -2.2582E+00 -1.3499E+00 -1.3475E+00 -1.3447E+00 -5.5727E-01 -5.4100E-01
 -2.7031E-01 -2.3860E-01 -2.2731E-01 -2.1296E-01 -1.6948E-01 -1.3962E-01
 -1.2262E-01 -2.9588E-02 -6.3601E-03  1.2722E-03
  prteigrs : nnsclo,ikpt=   10   73 max resid (incl. the buffer)=  5.71134E-05
 Non-SCF case, kpt   74 (  0.18333  0.18333  0.00000), residuals and eigenvalues=
  5.64E-13  2.48E-13  6.56E-13  6.54E-13  2.26E-13  9.42E-13  3.64E-13  4.02E-13
  5.50E-13  2.96E-13  7.50E-13  3.38E-13  7.01E-13  5.95E-09  7.60E-07  8.67E-07
 -2.2580E+00 -1.3494E+00 -1.3475E+00 -1.3444E+00 -5.6032E-01 -5.4242E-01
 -2.6902E-01 -2.3378E-01 -2.2822E-01 -2.1177E-01 -1.6638E-01 -1.3769E-01
 -1.2326E-01 -3.0619E-02 -7.3870E-03 -4.5717E-04
  prteigrs : nnsclo,ikpt=   10   74 max resid (incl. the buffer)=  8.66630E-07
 Non-SCF case, kpt   75 (  0.17500  0.17500  0.00000), residuals and eigenvalues=
  5.08E-13  7.12E-13  2.18E-13  6.99E-13  4.13E-13  2.75E-13  7.95E-13  7.92E-13
  6.17E-13  3.52E-13  8.17E-13  4.68E-13  6.76E-12  8.32E-09  9.57E-07  9.16E-08
 -2.2584E+00 -1.3491E+00 -1.3477E+00 -1.3442E+00 -5.6342E-01 -5.4384E-01
 -2.6791E-01 -2.2906E-01 -2.2892E-01 -2.1008E-01 -1.6378E-01 -1.3594E-01
 -1.2360E-01 -3.1187E-02 -8.3231E-03 -2.1722E-03
  prteigrs : nnsclo,ikpt=   10   75 max resid (incl. the buffer)=  9.57478E-07
 Non-SCF case, kpt   76 (  0.16667  0.16667  0.00000), residuals and eigenvalues=
  8.26E-13  6.73E-13  2.00E-13  3.33E-13  8.62E-13  2.49E-13  7.20E-13  2.32E-13
  5.13E-13  8.09E-13  7.11E-13  3.12E-13  2.29E-12  2.76E-08  9.29E-07  4.96E-07
 -2.2587E+00 -1.3488E+00 -1.3478E+00 -1.3439E+00 -5.6650E-01 -5.4526E-01
 -2.6713E-01 -2.2920E-01 -2.2459E-01 -2.0778E-01 -1.6180E-01 -1.3438E-01
 -1.2353E-01 -3.1274E-02 -9.1557E-03 -3.8199E-03
  prteigrs : nnsclo,ikpt=   10   76 max resid (incl. the buffer)=  9.28906E-07
 Non-SCF case, kpt   77 (  0.15833  0.15833  0.00000), residuals and eigenvalues=
  7.89E-13  5.81E-13  6.33E-13  4.53E-13  9.89E-13  4.00E-13  7.02E-13  3.73E-13
  4.61E-13  7.60E-13  8.98E-13  3.35E-13  4.40E-11  2.10E-07  8.07E-06  8.43E-08
 -2.2592E+00 -1.3484E+00 -1.3479E+00 -1.3438E+00 -5.6960E-01 -5.4668E-01
 -2.6681E-01 -2.2894E-01 -2.2049E-01 -2.0479E-01 -1.6053E-01 -1.3301E-01
 -1.2301E-01 -3.0925E-02 -9.7957E-03 -5.3638E-03
  prteigrs : nnsclo,ikpt=   10   77 max resid (incl. the buffer)=  8.07383E-06
 Non-SCF case, kpt   78 (  0.15000  0.15000  0.00000), residuals and eigenvalues=
  5.08E-13  7.64E-13  2.33E-13  7.88E-13  6.34E-13  2.94E-13  4.82E-13  8.98E-13
  2.21E-13  4.49E-13  9.02E-13  5.38E-13  8.36E-12  5.49E-08  4.32E-06  1.15E-06
 -2.2594E+00 -1.3480E+00 -1.3480E+00 -1.3436E+00 -5.7263E-01 -5.4808E-01
 -2.6703E-01 -2.2803E-01 -2.1681E-01 -2.0109E-01 -1.6001E-01 -1.3185E-01
 -1.2196E-01 -3.0151E-02 -1.0210E-02 -6.7583E-03
  prteigrs : nnsclo,ikpt=   10   78 max resid (incl. the buffer)=  4.31881E-06
 Non-SCF case, kpt   79 (  0.14167  0.14167  0.00000), residuals and eigenvalues=
  7.38E-13  8.37E-13  3.05E-13  2.23E-13  6.32E-13  5.68E-13  8.03E-13  5.81E-13
  3.16E-13  6.35E-13  4.16E-13  9.52E-13  1.08E-12  4.78E-08  5.16E-08  1.51E-07
 -2.2597E+00 -1.3481E+00 -1.3475E+00 -1.3434E+00 -5.7562E-01 -5.4945E-01
 -2.6780E-01 -2.2645E-01 -2.1349E-01 -1.9681E-01 -1.6022E-01 -1.3090E-01
 -1.2044E-01 -2.9042E-02 -1.0329E-02 -7.9682E-03
  prteigrs : nnsclo,ikpt=   10   79 max resid (incl. the buffer)=  1.51429E-07
 Non-SCF case, kpt   80 (  0.13333  0.13333  0.00000), residuals and eigenvalues=
  5.28E-13  4.19E-13  6.42E-13  6.80E-13  7.63E-13  7.68E-13  6.35E-13  4.51E-13
  7.63E-13  5.51E-13  9.69E-13  9.40E-13  1.31E-11  7.49E-10  4.19E-07  9.02E-07
 -2.2596E+00 -1.3482E+00 -1.3470E+00 -1.3432E+00 -5.7850E-01 -5.5078E-01
 -2.6907E-01 -2.2425E-01 -2.1038E-01 -1.9214E-01 -1.6104E-01 -1.3017E-01
 -1.1855E-01 -2.7644E-02 -1.0086E-02 -8.9491E-03
  prteigrs : nnsclo,ikpt=   10   80 max resid (incl. the buffer)=  9.02333E-07
 Non-SCF case, kpt   81 (  0.12500  0.12500  0.00000), residuals and eigenvalues=
  3.53E-13  3.41E-13  8.65E-13  8.57E-13  6.94E-13  5.24E-13  3.00E-13  4.47E-13
  7.10E-13  5.23E-13  5.25E-13  7.73E-13  4.68E-11  1.11E-06  3.06E-07  4.03E-05
 -2.2602E+00 -1.3484E+00 -1.3465E+00 -1.3430E+00 -5.8133E-01 -5.5207E-01
 -2.7074E-01 -2.2158E-01 -2.0736E-01 -1.8727E-01 -1.6235E-01 -1.2966E-01
 -1.1646E-01 -2.6021E-02 -9.6911E-03 -9.4214E-03
  prteigrs : nnsclo,ikpt=   10   81 max resid (incl. the buffer)=  4.03024E-05
 Non-SCF case, kpt   82 (  0.11667  0.11667  0.00000), residuals and eigenvalues=
  5.20E-13  3.99E-13  4.36E-13  4.25E-13  9.04E-13  4.68E-13  3.94E-13  4.15E-13
  6.28E-13  4.09E-13  9.17E-13  4.89E-13  6.61E-11  3.01E-08  4.60E-06  3.27E-06
 -2.2602E+00 -1.3486E+00 -1.3460E+00 -1.3428E+00 -5.8402E-01 -5.5330E-01
 -2.7267E-01 -2.1850E-01 -2.0433E-01 -1.8235E-01 -1.6397E-01 -1.2939E-01
 -1.1427E-01 -2.4188E-02 -1.0150E-02 -8.5473E-03
  prteigrs : nnsclo,ikpt=   10   82 max resid (incl. the buffer)=  4.60267E-06
 Non-SCF case, kpt   83 (  0.10833  0.10833  0.00000), residuals and eigenvalues=
  5.50E-13  6.78E-13  7.79E-13  8.44E-13  9.93E-13  8.57E-13  4.47E-13  5.26E-13
  8.49E-13  8.20E-13  1.29E-12  6.82E-13  2.48E-10  5.55E-07  4.32E-06  1.03E-04
 -2.2603E+00 -1.3487E+00 -1.3455E+00 -1.3426E+00 -5.8660E-01 -5.5449E-01
 -2.7479E-01 -2.1516E-01 -2.0123E-01 -1.7752E-01 -1.6581E-01 -1.2934E-01
 -1.1213E-01 -2.2147E-02 -1.0306E-02 -7.0646E-03
  prteigrs : nnsclo,ikpt=   10   83 max resid (incl. the buffer)=  1.03384E-04
 Non-SCF case, kpt   84 (  0.10000  0.10000  0.00000), residuals and eigenvalues=
  6.68E-13  9.68E-13  5.75E-13  1.19E-13  5.35E-13  6.66E-13  4.60E-13  8.54E-13
  8.15E-13  3.83E-13  4.62E-13  7.10E-13  3.52E-12  3.05E-07  8.37E-07  1.67E-05
 -2.2603E+00 -1.3488E+00 -1.3449E+00 -1.3424E+00 -5.8903E-01 -5.5561E-01
 -2.7699E-01 -2.1162E-01 -1.9806E-01 -1.7284E-01 -1.6775E-01 -1.2952E-01
 -1.1011E-01 -1.9890E-02 -1.0163E-02 -5.7472E-03
  prteigrs : nnsclo,ikpt=   10   84 max resid (incl. the buffer)=  1.67064E-05
 Non-SCF case, kpt   85 (  0.09167  0.09167  0.00000), residuals and eigenvalues=
  5.42E-13  4.12E-13  5.85E-13  2.87E-13  5.09E-13  2.86E-13  3.66E-13  4.90E-13
  6.78E-13  8.73E-13  3.16E-13  5.48E-13  4.31E-11  1.51E-06  2.44E-05  1.24E-05
 -2.2605E+00 -1.3489E+00 -1.3445E+00 -1.3423E+00 -5.9132E-01 -5.5666E-01
 -2.7920E-01 -2.0801E-01 -1.9479E-01 -1.6972E-01 -1.6842E-01 -1.2994E-01
 -1.0829E-01 -1.7416E-02 -9.6251E-03 -4.0583E-03
  prteigrs : nnsclo,ikpt=   10   85 max resid (incl. the buffer)=  2.43809E-05
 Non-SCF case, kpt   86 (  0.08333  0.08333  0.00000), residuals and eigenvalues=
  6.96E-13  7.50E-13  8.55E-13  6.67E-13  8.17E-13  5.25E-13  6.17E-13  6.76E-13
  8.35E-13  7.37E-13  6.36E-13  7.69E-13  1.64E-11  1.37E-06  2.68E-05  9.61E-07
 -2.2602E+00 -1.3489E+00 -1.3439E+00 -1.3421E+00 -5.9342E-01 -5.5763E-01
 -2.8136E-01 -2.0436E-01 -1.9142E-01 -1.7164E-01 -1.6429E-01 -1.3061E-01
 -1.0668E-01 -1.4710E-02 -8.8673E-03 -2.3201E-03
  prteigrs : nnsclo,ikpt=   10   86 max resid (incl. the buffer)=  2.68194E-05
 Non-SCF case, kpt   87 (  0.07500  0.07500  0.00000), residuals and eigenvalues=
  6.47E-13  6.74E-13  5.44E-13  6.05E-13  9.46E-13  4.90E-13  4.79E-13  9.86E-13
  3.46E-13  5.85E-13  3.32E-13  8.92E-13  7.48E-11  1.25E-06  3.84E-05  3.43E-06
 -2.2602E+00 -1.3490E+00 -1.3434E+00 -1.3420E+00 -5.9537E-01 -5.5853E-01
 -2.8343E-01 -2.0080E-01 -1.8799E-01 -1.7350E-01 -1.6051E-01 -1.3149E-01
 -1.0533E-01 -1.1802E-02 -7.7224E-03 -5.2939E-04
  prteigrs : nnsclo,ikpt=   10   87 max resid (incl. the buffer)=  3.83634E-05
 Non-SCF case, kpt   88 (  0.06667  0.06667  0.00000), residuals and eigenvalues=
  8.38E-13  9.54E-13  7.12E-13  2.50E-13  4.60E-13  5.64E-13  9.79E-13  3.40E-13
  6.71E-13  9.66E-13  7.50E-13  9.62E-13  7.22E-11  7.55E-06  1.03E-05  1.68E-04
 -2.2609E+00 -1.3492E+00 -1.3432E+00 -1.3420E+00 -5.9716E-01 -5.5936E-01
 -2.8540E-01 -1.9741E-01 -1.8451E-01 -1.7525E-01 -1.5711E-01 -1.3264E-01
 -1.0423E-01 -8.7017E-03 -6.5031E-03  2.6638E-03
  prteigrs : nnsclo,ikpt=   10   88 max resid (incl. the buffer)=  1.68012E-04
 Non-SCF case, kpt   89 (  0.05833  0.05833  0.00000), residuals and eigenvalues=
  6.07E-13  2.59E-13  7.41E-13  4.74E-13  4.37E-13  4.99E-13  8.97E-13  4.42E-13
  2.84E-13  2.47E-13  1.91E-12  4.20E-13  3.68E-11  1.20E-05  1.32E-05  8.90E-05
 -2.2608E+00 -1.3492E+00 -1.3428E+00 -1.3419E+00 -5.9873E-01 -5.6008E-01
 -2.8717E-01 -1.9420E-01 -1.8101E-01 -1.7683E-01 -1.5411E-01 -1.3400E-01
 -1.0334E-01 -5.5612E-03 -5.0417E-03  3.9206E-03
  prteigrs : nnsclo,ikpt=   10   89 max resid (incl. the buffer)=  8.89961E-05
 Non-SCF case, kpt   90 (  0.05000  0.05000  0.00000), residuals and eigenvalues=
  4.94E-13  4.40E-13  3.81E-13  4.56E-13  7.49E-13  5.82E-13  8.87E-13  6.00E-13
  7.38E-13  7.10E-13  2.88E-12  4.75E-12  7.10E-11  1.60E-06  2.15E-05  1.06E-05
 -2.2612E+00 -1.3493E+00 -1.3425E+00 -1.3418E+00 -6.0012E-01 -5.6073E-01
 -2.8876E-01 -1.9128E-01 -1.7824E-01 -1.7753E-01 -1.5153E-01 -1.3557E-01
 -1.0265E-01 -3.4947E-03 -2.2715E-03  4.5367E-03
  prteigrs : nnsclo,ikpt=   10   90 max resid (incl. the buffer)=  2.14563E-05
 Non-SCF case, kpt   91 (  0.04167  0.04167  0.00000), residuals and eigenvalues=
  8.23E-13  2.46E-13  2.44E-13  6.10E-13  7.49E-13  8.43E-13  3.59E-13  2.92E-13
  7.16E-13  5.62E-13  4.39E-12  8.65E-13  3.07E-10  1.45E-05  3.84E-05  8.08E-06
 -2.2609E+00 -1.3493E+00 -1.3421E+00 -1.3417E+00 -6.0129E-01 -5.6126E-01
 -2.9013E-01 -1.8867E-01 -1.7945E-01 -1.7411E-01 -1.4936E-01 -1.3731E-01
 -1.0212E-01 -1.7019E-03  8.6896E-04  5.9313E-03
  prteigrs : nnsclo,ikpt=   10   91 max resid (incl. the buffer)=  3.84463E-05
 Non-SCF case, kpt   92 (  0.03333  0.03333  0.00000), residuals and eigenvalues=
  8.82E-13  2.49E-13  2.71E-13  7.91E-13  9.16E-13  3.09E-13  9.83E-13  8.41E-13
  3.12E-13  7.22E-13  1.92E-12  1.95E-12  8.56E-10  4.34E-05  9.17E-06  1.14E-06
 -2.2609E+00 -1.3493E+00 -1.3420E+00 -1.3417E+00 -6.0226E-01 -5.6172E-01
 -2.9127E-01 -1.8645E-01 -1.8047E-01 -1.7086E-01 -1.4760E-01 -1.3916E-01
 -1.0172E-01  6.1035E-04  3.4873E-03  6.2638E-03
  prteigrs : nnsclo,ikpt=   10   92 max resid (incl. the buffer)=  4.33624E-05
 Non-SCF case, kpt   93 (  0.02500  0.02500  0.00000), residuals and eigenvalues=
  7.98E-13  3.87E-13  3.00E-13  2.18E-13  4.92E-13  7.33E-13  3.84E-13  3.36E-13
  2.80E-13  8.86E-13  4.09E-12  4.47E-12  7.91E-10  4.60E-05  2.53E-06  4.73E-05
 -2.2610E+00 -1.3493E+00 -1.3418E+00 -1.3416E+00 -6.0302E-01 -5.6207E-01
 -2.9218E-01 -1.8467E-01 -1.8127E-01 -1.6788E-01 -1.4625E-01 -1.4104E-01
 -1.0145E-01  1.5528E-03  5.3445E-03  5.8916E-03
  prteigrs : nnsclo,ikpt=   10   93 max resid (incl. the buffer)=  4.73358E-05
 Non-SCF case, kpt   94 (  0.01667  0.01667  0.00000), residuals and eigenvalues=
  7.98E-13  3.09E-13  2.79E-13  2.20E-13  7.97E-13  6.95E-13  9.10E-13  2.81E-13
  8.14E-13  3.62E-13  4.76E-12  3.51E-12  5.79E-10  6.47E-06  5.24E-05  7.89E-07
 -2.2610E+00 -1.3493E+00 -1.3417E+00 -1.3416E+00 -6.0357E-01 -5.6232E-01
 -2.9282E-01 -1.8337E-01 -1.8184E-01 -1.6536E-01 -1.4529E-01 -1.4277E-01
 -1.0127E-01  2.1389E-03  4.9901E-03  7.2498E-03
  prteigrs : nnsclo,ikpt=   10   94 max resid (incl. the buffer)=  5.23994E-05
 Non-SCF case, kpt   95 (  0.00833  0.00833  0.00000), residuals and eigenvalues=
  7.64E-13  2.63E-13  2.58E-13  3.30E-13  8.64E-13  9.11E-13  3.28E-13  6.95E-13
  7.36E-13  3.73E-13  7.88E-12  1.64E-12  3.91E-10  8.06E-07  5.09E-05  1.16E-07
 -2.2610E+00 -1.3494E+00 -1.3416E+00 -1.3415E+00 -6.0389E-01 -5.6246E-01
 -2.9322E-01 -1.8257E-01 -1.8218E-01 -1.6360E-01 -1.4473E-01 -1.4406E-01
 -1.0116E-01  2.6060E-03  4.5210E-03  8.3191E-03
  prteigrs : nnsclo,ikpt=   10   95 max resid (incl. the buffer)=  5.09175E-05
 Non-SCF case, kpt   96 (  0.00000  0.00000  0.00000), residuals and eigenvalues=
  6.70E-13  3.61E-13  8.07E-13  6.56E-13  9.69E-13  3.88E-13  5.03E-13  3.62E-13
  7.98E-13  8.43E-13  9.25E-13  6.32E-13  1.18E-10  4.77E-09  3.93E-05  4.64E-09
 -2.2605E+00 -1.3492E+00 -1.3415E+00 -1.3415E+00 -6.0397E-01 -5.6250E-01
 -2.9333E-01 -1.8230E-01 -1.8230E-01 -1.6294E-01 -1.4453E-01 -1.4453E-01
 -1.0113E-01  2.8247E-03  3.3487E-03  8.6723E-03
  prteigrs : nnsclo,ikpt=   10   96 max resid (incl. the buffer)=  3.92724E-05


 scprqt:  WARNING -
  nstep=   10 was not enough non-SCF iterations to converge;
  maximum residual=  1.209E-04 exceeds tolwfr=  1.000E-12

 Integrated electronic density in atomic spheres:
 ------------------------------------------------
 Atom  Sphere_radius  Integrated_density
    1        2.00000         10.49853245
    2        2.00000          3.82314751
    3        2.00000          3.82314751
================================================================================

 ----iterations are completed or convergence reached----

 Mean square residual over all n,k,spin=   3.8428E-06; max=  4.9202E-04
 reduced coordinates (array xred) for    3 atoms
       0.000000000000      0.000000000000      0.000000000000
       0.666666666667      0.333333333333      0.079078110549
       0.666666666667      0.333333333333     -0.079078110549

 cartesian coordinates (angstrom) at end:
    1      0.00000000000000     0.00000000000000     0.00000000000000
    2      1.60247312708526     0.92518829128708     1.60914980438335
    3      1.60247312708526     0.92518829128708    -1.60914980438335
 length scales=  6.056470691000  6.056470691000 38.453782165000 bohr
              =  3.204946254171  3.204946254171 20.348865105803 angstroms
 prteigrs : about to open file mos2_5o_DS2_EIG
 Eigenvalues (   eV  ) for nkpt=  96  k points:
 kpt#   1, nband= 16, wtk=  1.00000, kpt=  0.0000  0.0000  0.0000 (reduced coord)
 -61.51240  -36.71383  -36.50509  -36.50509  -16.43480  -15.30646   -7.98186   -4.96052
  -4.96052   -4.43395   -3.93277   -3.93277   -2.75186    0.07686    0.09112    0.23599
 kpt#   2, nband= 16, wtk=  1.00000, kpt=  0.0143  0.0000  0.0000 (reduced coord)
 -61.52592  -36.71936  -36.50768  -36.50513  -16.43284  -15.30551   -7.97911   -4.96786
  -4.95766   -4.45129   -3.93816   -3.92040   -2.75277    0.07389    0.13625    0.23140
 kpt#   3, nband= 16, wtk=  1.00000, kpt=  0.0286  0.0000  0.0000 (reduced coord)
 -61.52376  -36.71819  -36.50940  -36.50563  -16.42406  -15.30147   -7.96849   -4.98907
  -4.94844   -4.49851   -3.95309   -3.88611   -2.75546    0.06616    0.12735    0.19745
 kpt#   4, nband= 16, wtk=  1.00000, kpt=  0.0429  0.0000  0.0000 (reduced coord)
 -61.51688  -36.71563  -36.51199  -36.50578  -16.40941  -15.29475   -7.95081   -5.02374
  -4.93306   -4.56610   -3.97724   -3.84053   -2.76019    0.02760    0.14225    0.16453
 kpt#   5, nband= 16, wtk=  1.00000, kpt=  0.0571  0.0000  0.0000 (reduced coord)
 -61.52284  -36.71761  -36.51703  -36.50766  -16.38931  -15.28550   -7.92717   -5.07141
  -4.91174   -4.64668   -4.01080   -3.79234   -2.76764    0.00605    0.08917    0.16928
 kpt#   6, nband= 16, wtk=  1.00000, kpt=  0.0714  0.0000  0.0000 (reduced coord)
 -61.51529  -36.71559  -36.52210  -36.50760  -16.36320  -15.27346   -7.89636   -5.13063
  -4.88431   -4.73516   -4.05214   -3.74639   -2.77787   -0.03711    0.01714    0.17780
 kpt#   7, nband= 16, wtk=  1.00000, kpt=  0.0857  0.0000  0.0000 (reduced coord)
 -61.51414  -36.71421  -36.52845  -36.51065  -16.33173  -15.25891   -7.85968   -5.20060
  -4.85133   -4.82912   -4.10099   -3.70660   -2.79194   -0.07210   -0.06034    0.19477
 kpt#   8, nband= 16, wtk=  1.00000, kpt=  0.1000  0.0000  0.0000 (reduced coord)
 -61.51730  -36.71334  -36.53817  -36.51368  -16.29503  -15.24199   -7.81761   -5.27972
  -4.92692   -4.81320   -4.15616   -3.67544   -2.81060   -0.15037   -0.11042    0.08827
 kpt#   9, nband= 16, wtk=  1.00000, kpt=  0.1143  0.0000  0.0000 (reduced coord)
 -61.52445  -36.71403  -36.55038  -36.51616  -16.25327  -15.22271   -7.77098   -5.36644
  -5.02750   -4.76958   -4.21660   -3.65475   -2.83495   -0.23477   -0.15042    0.05234
 kpt#  10, nband= 16, wtk=  1.00000, kpt=  0.1286  0.0000  0.0000 (reduced coord)
 -61.51596  -36.71045  -36.55949  -36.51866  -16.20610  -15.20099   -7.71944   -5.45865
  -5.12990   -4.72099   -4.28131   -3.64518   -2.86506   -0.31667   -0.17132    0.00356
 kpt#  11, nband= 16, wtk=  1.00000, kpt=  0.1429  0.0000  0.0000 (reduced coord)
 -61.50601  -36.70700  -36.57089  -36.51905  -16.15370  -15.17669   -7.66403   -5.55591
  -5.23428   -4.66759   -4.34958   -3.64774   -2.90159   -0.39274   -0.18174   -0.04457
 kpt#  12, nband= 16, wtk=  1.00000, kpt=  0.1571  0.0000  0.0000 (reduced coord)
 -61.50615  -36.70535  -36.58471  -36.52166  -16.09720  -15.15072   -7.60768   -5.65546
  -5.34008   -4.61025   -4.42021   -3.66237   -2.94568   -0.46101   -0.17999   -0.09008
 kpt#  13, nband= 16, wtk=  1.00000, kpt=  0.1714  0.0000  0.0000 (reduced coord)
 -61.51501  -36.70340  -36.60166  -36.52737  -16.03623  -15.12269   -7.55070   -5.75617
  -5.44733   -4.54952   -4.49257   -3.68805   -2.99719   -0.51932   -0.16589   -0.13698
 kpt#  14, nband= 16, wtk=  1.00000, kpt=  0.1857  0.0000  0.0000 (reduced coord)
 -61.51297  -36.69981  -36.61691  -36.53073  -15.97179  -15.09305   -7.49555   -5.85472
  -5.55543   -4.56578   -4.48527   -3.72301   -3.05491   -0.56624   -0.18349   -0.13822
 kpt#  15, nband= 16, wtk=  1.00000, kpt=  0.2000  0.0000  0.0000 (reduced coord)
 -61.50628  -36.69799  -36.62868  -36.53394  -15.90282  -15.06170   -7.44419   -5.94920
  -5.66460   -4.63939   -4.41855   -3.76625   -3.11756   -0.60070   -0.22909   -0.09865
 kpt#  16, nband= 16, wtk=  1.00000, kpt=  0.2143  0.0000  0.0000 (reduced coord)
 -61.49977  -36.69302  -36.64379  -36.53744  -15.83133  -15.02880   -7.39935   -6.03762
  -5.77421   -4.71243   -4.34951   -3.81570   -3.18411   -0.62348   -0.27218   -0.04764
 kpt#  17, nband= 16, wtk=  1.00000, kpt=  0.2286  0.0000  0.0000 (reduced coord)
 -61.49077  -36.68946  -36.65713  -36.54029  -15.75638  -14.99486   -7.36504   -6.11666
  -5.88433   -4.78449   -4.27893   -3.86978   -3.25182   -0.63435   -0.31211    0.01185
 kpt#  18, nband= 16, wtk=  1.00000, kpt=  0.2429  0.0000  0.0000 (reduced coord)
 -61.47513  -36.68495  -36.66981  -36.54140  -15.67884  -14.95982   -7.34419   -6.18353
  -5.99435   -4.85501   -4.20738   -3.92659   -3.31816   -0.63400   -0.34924    0.08042
 kpt#  19, nband= 16, wtk=  1.00000, kpt=  0.2571  0.0000  0.0000 (reduced coord)
 -61.46172  -36.68493  -36.68034  -36.54135  -15.59992  -14.92385   -7.34031   -6.23665
  -6.10419   -4.92339   -4.13568   -3.98443   -3.38054   -0.62368   -0.38206    0.15256
 kpt#  20, nband= 16, wtk=  1.00000, kpt=  0.2714  0.0000  0.0000 (reduced coord)
 -61.46380  -36.70079  -36.67819  -36.54651  -15.51990  -14.88767   -7.35488   -6.27601
  -6.21322   -4.99006   -4.06505   -4.04224   -3.43648   -0.60435   -0.41191    0.22981
 kpt#  21, nband= 16, wtk=  1.00000, kpt=  0.2857  0.0000  0.0000 (reduced coord)
 -61.45003  -36.71084  -36.67412  -36.55061  -15.43830  -14.85112   -7.38698   -6.32083
  -6.30106   -5.05379   -4.09837   -3.99594   -3.48312   -0.57650   -0.43592    0.31009
 kpt#  22, nband= 16, wtk=  1.00000, kpt=  0.3000  0.0000  0.0000 (reduced coord)
 -61.43918  -36.72149  -36.66983  -36.55540  -15.35703  -14.81464   -7.43457   -6.42617
  -6.31660   -5.11470   -4.15231   -3.92858   -3.51851   -0.54223   -0.45580    0.39140
 kpt#  23, nband= 16, wtk=  1.00000, kpt=  0.3143  0.0000  0.0000 (reduced coord)
 -61.45041  -36.73938  -36.67024  -36.55972  -15.27686  -14.77885   -7.49464   -6.52904
  -6.32775   -5.17258   -4.20348   -3.86395   -3.54094   -0.50294   -0.47107    0.47168
 kpt#  24, nband= 16, wtk=  1.00000, kpt=  0.3286  0.0000  0.0000 (reduced coord)
 -61.45056  -36.75371  -36.66824  -36.56335  -15.19722  -14.74368   -7.56255   -6.62820
  -6.33624   -5.22682   -4.25117   -3.80257   -3.54943   -0.48081   -0.45888    0.55054
 kpt#  25, nband= 16, wtk=  1.00000, kpt=  0.3429  0.0000  0.0000 (reduced coord)
 -61.43762  -36.76236  -36.66565  -36.56537  -15.11929  -14.70942   -7.63477   -6.72296
  -6.34459   -5.27737   -4.29478   -3.74483   -3.54402   -0.48563   -0.41085    0.62654
 kpt#  26, nband= 16, wtk=  1.00000, kpt=  0.3571  0.0000  0.0000 (reduced coord)
 -61.42901  -36.77324  -36.66260  -36.56707  -15.04417  -14.67652   -7.70863   -6.81264
  -6.35590   -5.32414   -4.33463   -3.69151   -3.52594   -0.48658   -0.35989    0.69901
 kpt#  27, nband= 16, wtk=  1.00000, kpt=  0.3714  0.0000  0.0000 (reduced coord)
 -61.44474  -36.78897  -36.66381  -36.57204  -14.97312  -14.64551   -7.78280   -6.89705
[...]
  -5.30040   -4.61830   -4.58299   -3.53589   -2.94665   -0.47391   -0.26191   -0.11043
 kpt#  86, nband= 16, wtk=  1.00000, kpt=  0.0833  0.0833  0.0000 (reduced coord)
 -61.50246  -36.70664  -36.56813  -36.52172  -16.14773  -15.17390   -7.65607   -5.56103
  -5.20885   -4.67067   -4.47060   -3.55396   -2.90298   -0.40027   -0.24129   -0.06313
 kpt#  87, nband= 16, wtk=  1.00000, kpt=  0.0750  0.0750  0.0000 (reduced coord)
 -61.50449  -36.70816  -36.55682  -36.51844  -16.20085  -15.19846   -7.71264   -5.46404
  -5.11546   -4.72127   -4.36766   -3.57811   -2.86628   -0.32115   -0.21014   -0.01441
 kpt#  88, nband= 16, wtk=  1.00000, kpt=  0.0667  0.0667  0.0000 (reduced coord)
 -61.52192  -36.71306  -36.55048  -36.51658  -16.24953  -15.22086   -7.76614   -5.37168
  -5.02088   -4.76869   -4.27519   -3.60923   -2.83628   -0.23679   -0.17696    0.07249
 kpt#  89, nband= 16, wtk=  1.00000, kpt=  0.0583  0.0583  0.0000 (reduced coord)
 -61.51933  -36.71474  -36.53845  -36.51375  -16.29224  -15.24061   -7.81425   -5.28448
  -4.92545   -4.81169   -4.19354   -3.64622   -2.81192   -0.15133   -0.13719    0.10668
 kpt#  90, nband= 16, wtk=  1.00000, kpt=  0.0500  0.0500  0.0000 (reduced coord)
 -61.52967  -36.71717  -36.53219  -36.51305  -16.33006  -15.25812   -7.85768   -5.20496
  -4.85020   -4.83071   -4.12332   -3.68911   -2.79319   -0.09509   -0.06181    0.12345
 kpt#  91, nband= 16, wtk=  1.00000, kpt=  0.0417  0.0417  0.0000 (reduced coord)
 -61.52201  -36.71737  -36.52127  -36.51072  -16.36188  -15.27279   -7.89478   -5.13396
  -4.88316   -4.73790   -4.06424   -3.73629   -2.77872   -0.04631    0.02365    0.16140
 kpt#  92, nband= 16, wtk=  1.00000, kpt=  0.0333  0.0333  0.0000 (reduced coord)
 -61.52291  -36.71666  -36.51679  -36.50917  -16.38840  -15.28507   -7.92585   -5.07364
  -4.91087   -4.64941   -4.01647   -3.78687   -2.76795    0.01661    0.09489    0.17045
 kpt#  93, nband= 16, wtk=  1.00000, kpt=  0.0250  0.0250  0.0000 (reduced coord)
 -61.52365  -36.71758  -36.51175  -36.50797  -16.40908  -15.29468   -7.95055   -5.02518
  -4.93257   -4.56823   -3.97974   -3.83794   -2.76052    0.04225    0.14543    0.16032
 kpt#  94, nband= 16, wtk=  1.00000, kpt=  0.0167  0.0167  0.0000 (reduced coord)
 -61.52383  -36.71735  -36.50920  -36.50685  -16.42389  -15.30142   -7.96813   -4.98981
  -4.94817   -4.49960   -3.95363   -3.88498   -2.75559    0.05820    0.13579    0.19728
 kpt#  95, nband= 16, wtk=  1.00000, kpt=  0.0083  0.0083  0.0000 (reduced coord)
 -61.52363  -36.71824  -36.50735  -36.50535  -16.43270  -15.30538   -7.97879   -4.96808
  -4.95747   -4.45166   -3.93824   -3.92005   -2.75274    0.07091    0.12302    0.22637
 kpt#  96, nband= 16, wtk=  1.00000, kpt=  0.0000  0.0000  0.0000 (reduced coord)
 -61.51240  -36.71383  -36.50509  -36.50509  -16.43480  -15.30646   -7.98186   -4.96052
  -4.96052   -4.43395   -3.93277   -3.93277   -2.75186    0.07686    0.09112    0.23599

== END DATASET(S) ==============================================================
================================================================================
  
 -outvars: echo values of variables after computation  --------
            acell      6.0564706910E+00  6.0564706910E+00  3.8453782165E+01 Bohr
              amu      9.59400000E+01  3.20660000E+01
           diemac      1.20000000E+01
             ecut      1.70000000E+01 Hartree
           enunit1          0
           enunit2          1
           etotal1    -9.0058544620E+01
            fcart1     2.9639321430E-29  1.7112270206E-29 -0.0000000000E+00
                      -1.4819660715E-29 -8.5561351032E-30 -2.4280531097E-02
                      -1.4819660715E-29 -8.5561351032E-30  2.4280531097E-02
-          fftalg         112
           getden1          0
           getden2         -1
             iscf1          7
             iscf2         -2
           istwfk1       4    0    0    0    5    0    0    0    0    0
           istwfk2       2    0    0    0    0    0    0    0    0    0
                         0    0    0    0    0    0    0    0    0    0
                         0    0    0    0    0    0    0    0    0    0
                         0    0    0    0    0    3    0    0    0    0
                         0    0    0    0    0    0    0    0    0    0
                       outvar_i_n : Printing only first  50 k-points.
           jdtset        1    2
              kpt1     0.00000000E+00  0.00000000E+00  5.00000000E-01
                       1.25000000E-01  0.00000000E+00  5.00000000E-01
                       2.50000000E-01  0.00000000E+00  5.00000000E-01
                       3.75000000E-01  0.00000000E+00  5.00000000E-01
                       5.00000000E-01  0.00000000E+00  5.00000000E-01
                       1.25000000E-01  1.25000000E-01  5.00000000E-01
                       2.50000000E-01  1.25000000E-01  5.00000000E-01
                       3.75000000E-01  1.25000000E-01  5.00000000E-01
                       2.50000000E-01  2.50000000E-01  5.00000000E-01
                       3.75000000E-01  2.50000000E-01  5.00000000E-01
              kpt2     0.00000000E+00  0.00000000E+00  0.00000000E+00
                       1.42857143E-02  0.00000000E+00  0.00000000E+00
                       2.85714286E-02  0.00000000E+00  0.00000000E+00
                       4.28571429E-02  0.00000000E+00  0.00000000E+00
                       5.71428571E-02  0.00000000E+00  0.00000000E+00
                       7.14285714E-02  0.00000000E+00  0.00000000E+00
                       8.57142857E-02  0.00000000E+00  0.00000000E+00
                       1.00000000E-01  0.00000000E+00  0.00000000E+00
                       1.14285714E-01  0.00000000E+00  0.00000000E+00
                       1.28571429E-01  0.00000000E+00  0.00000000E+00
                       1.42857143E-01  0.00000000E+00  0.00000000E+00
                       1.57142857E-01  0.00000000E+00  0.00000000E+00
                       1.71428571E-01  0.00000000E+00  0.00000000E+00
                       1.85714286E-01  0.00000000E+00  0.00000000E+00
                       2.00000000E-01  0.00000000E+00  0.00000000E+00
                       2.14285714E-01  0.00000000E+00  0.00000000E+00
                       2.28571429E-01  0.00000000E+00  0.00000000E+00
                       2.42857143E-01  0.00000000E+00  0.00000000E+00
                       2.57142857E-01  0.00000000E+00  0.00000000E+00
                       2.71428571E-01  0.00000000E+00  0.00000000E+00
                       2.85714286E-01  0.00000000E+00  0.00000000E+00
                       3.00000000E-01  0.00000000E+00  0.00000000E+00
                       3.14285714E-01  0.00000000E+00  0.00000000E+00
                       3.28571429E-01  0.00000000E+00  0.00000000E+00
                       3.42857143E-01  0.00000000E+00  0.00000000E+00
                       3.57142857E-01  0.00000000E+00  0.00000000E+00
                       3.71428571E-01  0.00000000E+00  0.00000000E+00
                       3.85714286E-01  0.00000000E+00  0.00000000E+00
                       4.00000000E-01  0.00000000E+00  0.00000000E+00
                       4.14285714E-01  0.00000000E+00  0.00000000E+00
                       4.28571429E-01  0.00000000E+00  0.00000000E+00
                       4.42857143E-01  0.00000000E+00  0.00000000E+00
                       4.57142857E-01  0.00000000E+00  0.00000000E+00
                       4.71428571E-01  0.00000000E+00  0.00000000E+00
                       4.85714286E-01  0.00000000E+00  0.00000000E+00
                       5.00000000E-01  0.00000000E+00  0.00000000E+00
                       4.91666667E-01  1.66666667E-02  0.00000000E+00
                       4.83333333E-01  3.33333333E-02  0.00000000E+00
                       4.75000000E-01  5.00000000E-02  0.00000000E+00
                       4.66666667E-01  6.66666667E-02  0.00000000E+00
                       4.58333333E-01  8.33333333E-02  0.00000000E+00
                       4.50000000E-01  1.00000000E-01  0.00000000E+00
                       4.41666667E-01  1.16666667E-01  0.00000000E+00
                       4.33333333E-01  1.33333333E-01  0.00000000E+00
                       4.25000000E-01  1.50000000E-01  0.00000000E+00
                       4.16666667E-01  1.66666667E-01  0.00000000E+00
                       4.08333333E-01  1.83333333E-01  0.00000000E+00
                       4.00000000E-01  2.00000000E-01  0.00000000E+00
                       3.91666667E-01  2.16666667E-01  0.00000000E+00
                       3.83333333E-01  2.33333333E-01  0.00000000E+00
                       outvar_i_n : Printing only first  50 k-points.
           kptopt1          1
           kptopt2         -3
         kptrlatt        8    0    0      0    8    0      0    0    1
          kptrlen1     4.84517655E+01
          kptrlen2     3.00000000E+01
P           mkmem1         10
P           mkmem2         96
            natom           3
            nband1         14
            nband2         16
           nbdbuf1          0
           nbdbuf2          2
           ndtset           2
            ngfft          24      24     144
             nkpt1         10
             nkpt2         96
            nstep          10
             nsym          12
           ntypat           2
              occ      2.000000  2.000000  2.000000  2.000000  2.000000  2.000000
                       2.000000  2.000000  2.000000  2.000000  2.000000  2.000000
                       2.000000  0.000000
            rprim      1.0000000000E+00  0.0000000000E+00  0.0000000000E+00
                      -5.0000000000E-01  8.6602540378E-01  0.0000000000E+00
                       0.0000000000E+00  0.0000000000E+00  1.0000000000E+00
           shiftk1     0.00000000E+00  0.00000000E+00  5.00000000E-01
           shiftk2     5.00000000E-01  5.00000000E-01  5.00000000E-01
          spgroup         187
           strten1     5.5866435828E-04  5.5866435829E-04  5.7926086027E-04
                       0.0000000000E+00  0.0000000000E+00  0.0000000000E+00
           symrel      1  0  0   0  1  0   0  0  1       0 -1  0  -1  0  0   0  0 -1
                      -1 -1  0   1  0  0   0  0 -1      -1  0  0   1  1  0   0  0  1
                       0  1  0  -1 -1  0   0  0  1       1  1  0   0 -1  0   0  0 -1
                       1  0  0   0  1  0   0  0 -1       0 -1  0  -1  0  0   0  0  1
                      -1 -1  0   1  0  0   0  0  1      -1  0  0   1  1  0   0  0 -1
                       0  1  0  -1 -1  0   0  0 -1       1  1  0   0 -1  0   0  0  1
           toldfe1     1.00000000E-06 Hartree
           toldfe2     0.00000000E+00 Hartree
           tolwfr1     0.00000000E+00
           tolwfr2     1.00000000E-12
            typat      1  2  2
              wtk1       0.01563    0.09375    0.09375    0.09375    0.04688    0.09375
                         0.18750    0.18750    0.09375    0.09375
              wtk2       1.00000    1.00000    1.00000    1.00000    1.00000    1.00000
                         1.00000    1.00000    1.00000    1.00000    1.00000    1.00000
                         1.00000    1.00000    1.00000    1.00000    1.00000    1.00000
                         1.00000    1.00000    1.00000    1.00000    1.00000    1.00000
                         1.00000    1.00000    1.00000    1.00000    1.00000    1.00000
                         1.00000    1.00000    1.00000    1.00000    1.00000    1.00000
                         1.00000    1.00000    1.00000    1.00000    1.00000    1.00000
                         1.00000    1.00000    1.00000    1.00000    1.00000    1.00000
                         1.00000    1.00000
                       outvars : Printing only first  50 k-points.
           xangst      1.6237379922E-27  0.0000000000E+00  1.6459063547E-19
                       1.6024731271E+00  9.2518829129E-01  1.6091498044E+00
                       1.6024731271E+00  9.2518829129E-01 -1.6091498044E+00
            xcart      3.0684201168E-27  0.0000000000E+00  3.1103122508E-19
                       3.0282353455E+00  1.7483524919E+00  3.0408524371E+00
                       3.0282353455E+00  1.7483524919E+00 -3.0408524371E+00
             xred      5.0663501458E-28  0.0000000000E+00  8.0884429974E-21
                       6.6666666667E-01  3.3333333333E-01  7.9078110549E-02
                       6.6666666667E-01  3.3333333333E-01 -7.9078110549E-02
            znucl       42.00000   16.00000

================================================================================

- Total cpu        time (s,m,h):        478.6        7.98      0.133
- Total wall clock time (s,m,h):        275.6        4.59      0.077
-
- For major independent code sections, cpu and wall times (sec),
-  as well as % of the time and number of calls for node 0-
-<BEGIN_TIMER mpi_nprocs = 1, omp_nthreads = 1, mpi_rank = 0>
- cpu_time =          478.6, wall_time =          275.6
-
- routine                        cpu     %       wall     %      number of calls  Gflops    Speedup Efficacity
-                                                                  (-1=no count)
- fourwf%(pot)                 246.443  51.5    141.600  51.4          71511      -1.00        1.74       1.74
- nonlop(apply)                124.481  26.0     73.010  26.5          71511      -1.00        1.70       1.70
- projbd                        63.976  13.4     38.785  14.1         108942      -1.00        1.65       1.65
- vtowfk(ssdiag)                15.036   3.1      4.695   1.7             -1      -1.00        3.20       3.20
- fourwf%(den)                   3.936   0.8      1.421   0.5           1300      -1.00        2.77       2.77
- getghc-other                   3.236   0.7      2.000   0.7             -1      -1.00        1.62       1.62
- others (107)                   3.392   0.7      2.751   1.0             -1      -1.00        1.23       1.23
-<END_TIMER>
-
- subtotal                     460.500  96.2    264.262  95.9                                  1.74       1.74

- For major independent code sections, cpu and wall times (sec),
- as well as % of the total time and number of calls 

-<BEGIN_TIMER mpi_nprocs = 1, omp_nthreads = 1, mpi_rank = world>
- cpu_time =         478.6, wall_time =         275.6
-
- routine                         cpu     %       wall     %      number of calls Gflops    Speedup Efficacity
-                                                                  (-1=no count)
- fourwf%(pot)                 246.443  51.5    141.600  51.4          71511      -1.00        1.74       1.74
- nonlop(apply)                124.481  26.0     73.010  26.5          71511      -1.00        1.70       1.70
- projbd                        63.976  13.4     38.785  14.1         108942      -1.00        1.65       1.65
- vtowfk(ssdiag)                15.036   3.1      4.695   1.7             -1      -1.00        3.20       3.20
- fourwf%(den)                   3.936   0.8      1.421   0.5           1300      -1.00        2.77       2.77
- getghc-other                   3.236   0.7      2.000   0.7             -1      -1.00        1.62       1.62
- others (107)                   3.392   0.7      2.751   1.0             -1      -1.00        1.23       1.23
-<END_TIMER>

- subtotal                     460.500  96.2    264.262  95.9                                  1.74       1.74

================================================================================

 Suggested references for the acknowledgment of ABINIT usage.

 The users of ABINIT have little formal obligations with respect to the ABINIT group
 (those specified in the GNU General Public License, http://www.gnu.org/copyleft/gpl.txt).
 However, it is common practice in the scientific literature,
 to acknowledge the efforts of people that have made the research possible.
 In this spirit, please find below suggested citations of work written by ABINIT developers,
 corresponding to implementations inside of ABINIT that you have used in the present run.
 Note also that it will be of great value to readers of publications presenting these results,
 to read papers enabling them to understand the theoretical formalism and details
 of the ABINIT implementation.
 For information on why they are suggested, see also http://www.abinit.org/about/?text=acknowledgments.
-
- [1] Recent developments in the ABINIT software package.
- Computer Phys. Comm. 205, 106 (2016).
- X.Gonze, F.Jollet, F.Abreu Araujo, D.Adams, B.Amadon, T.Applencourt,
- C.Audouze, J.-M.Beuken, J.Bieder, A.Bokhanchuk, E.Bousquet, F.Bruneval
- D.Caliste, M.Cote, F.Dahm, F.Da Pieve, M.Delaveau, M.Di Gennaro,
- B.Dorado, C.Espejo, G.Geneste, L.Genovese, A.Gerossier, M.Giantomassi,
- Y.Gillet, D.R.Hamann, L.He, G.Jomard, J.Laflamme Janssen, S.Le Roux,
- A.Levitt, A.Lherbier, F.Liu, I.Lukacevic, A.Martin, C.Martins,
- M.J.T.Oliveira, S.Ponce, Y.Pouillon, T.Rangel, G.-M.Rignanese,
- A.H.Romero, B.Rousseau, O.Rubel, A.A.Shukri, M.Stankovski, M.Torrent,
- M.J.Van Setten, B.Van Troeye, M.J.Verstraete, D.Waroquier, J.Wiktor,
- B.Xue, A.Zhou, J.W.Zwanziger.
- Comment : the fourth generic paper describing the ABINIT project.
- Note that a version of this paper, that is not formatted for Computer Phys. Comm. 
- is available at http://www.abinit.org/about/ABINIT16.pdf .
- The licence allows the authors to put it on the Web.
-
- [2] Optimized norm-conserving Vanderbilt pseudopotentials.
- D.R. Hamann, Phys. Rev. B 88, 085117 (2013).
- Comment: Some pseudopotential generated using the ONCVPSP code were used.
-
- [3] ABINIT : First-principles approach of materials and nanosystem properties.
- Computer Phys. Comm. 180, 2582-2615 (2009).
- X. Gonze, B. Amadon, P.-M. Anglade, J.-M. Beuken, F. Bottin, P. Boulanger, F. Bruneval,
- D. Caliste, R. Caracas, M. Cote, T. Deutsch, L. Genovese, Ph. Ghosez, M. Giantomassi
- S. Goedecker, D.R. Hamann, P. Hermet, F. Jollet, G. Jomard, S. Leroux, M. Mancini, S. Mazevet,
- M.J.T. Oliveira, G. Onida, Y. Pouillon, T. Rangel, G.-M. Rignanese, D. Sangalli, R. Shaltaf,
- M. Torrent, M.J. Verstraete, G. Zerah, J.W. Zwanziger
- Comment : the third generic paper describing the ABINIT project.
- Note that a version of this paper, that is not formatted for Computer Phys. Comm. 
- is available at http://www.abinit.org/about/ABINIT_CPC_v10.pdf .
- The licence allows the authors to put it on the Web.
-
- [4] A brief introduction to the ABINIT software package.
- Z. Kristallogr. 220, 558-562 (2005).
- X. Gonze, G.-M. Rignanese, M. Verstraete, J.-M. Beuken, Y. Pouillon, R. Caracas, F. Jollet,
- M. Torrent, G. Zerah, M. Mikami, Ph. Ghosez, M. Veithen, J.-Y. Raty, V. Olevano, F. Bruneval,
- L. Reining, R. Godby, G. Onida, D.R. Hamann, and D.C. Allan.
- Comment : the second generic paper describing the ABINIT project. Note that this paper
- should be cited especially if you are using the GW part of ABINIT, as several authors
- of this part are not in the list of authors of the first or third paper.
- The .pdf of the latter paper is available at http://www.abinit.org/about/zfk_0505-06_558-562.pdf.
- Note that it should not redistributed (Copyright by Oldenburg Wissenshaftverlag,
- the licence allows the authors to put it on the Web).
-
- And optionally:
-
- [5] First-principles computation of material properties : the ABINIT software project. 
- X. Gonze, J.-M. Beuken, R. Caracas, F. Detraux, M. Fuchs, G.-M. Rignanese, L. Sindic,
- M. Verstraete, G. Zerah, F. Jollet, M. Torrent, A. Roy, M. Mikami, Ph. Ghosez, J.-Y. Raty, D.C. Allan.
- Computational Materials Science 25, 478-492 (2002). http://dx.doi.org/10.1016/S0927-0256(02)00325-7
- Comment : the original paper describing the ABINIT project.
-
- Proc.   0 individual time (sec): cpu=        478.6  wall=        275.6

================================================================================

 Calculation completed.
.Delivered 108 WARNINGs and   3 COMMENTs to log file.
+Overall time at end (sec) : cpu=        478.6  wall=        275.6
