
.Version 8.4.1 of ABINIT 
.(sequential version, prepared for a x86_64_linux_gnu7.0 computer) 

.Copyright (C) 1998-2017 ABINIT group . 
 ABINIT comes with ABSOLUTELY NO WARRANTY.
 It is free software, and you are welcome to redistribute it
 under certain conditions (GNU General Public License,
 see ~abinit/COPYING or http://www.gnu.org/copyleft/gpl.txt).

 ABINIT is a project of the Universite Catholique de Louvain,
 Corning Inc. and other collaborators, see ~abinit/doc/developers/contributors.txt .
 Please read ~abinit/doc/users/acknowledgments.html for suggested
 acknowledgments of the ABINIT effort.
 For more information, see http://www.abinit.org .

.Starting date : Wed  9 Aug 2017.
- ( at 10h28 )
  
- input  file    -> mos2_3.in
- output file    -> mos2_3.out
- root for input  files -> mos2_3i
- root for output files -> mos2_3o


 Symmetries : space group P-6 m 2 (#187); Bravais hP (primitive hexag.)
================================================================================
 Values of the parameters that define the memory need of the present run
     intxc =       0    ionmov =       2      iscf =       7    lmnmax =       6
     lnmax =       6     mgfft =      75  mpssoang =       3    mqgrid =    3683
     natom =       3  nloc_mem =       1    nspden =       1   nspinor =       1
    nsppol =       1      nsym =      12    n1xccc =    2501    ntypat =       2
    occopt =       1   xclevel =       1
-    mband =          10        mffmem =           1         mkmem =           2
       mpw =        2254          nfft =       43200          nkpt =           2
================================================================================
P This job should need less than                      14.827 Mbytes of memory.
  Rough estimation (10% accuracy) of disk space for files :
_ WF disk file :      0.690 Mbytes ; DEN or POT disk file :      0.332 Mbytes.
================================================================================

--------------------------------------------------------------------------------
------------- Echo of variables that govern the present computation ------------
--------------------------------------------------------------------------------
-
- outvars: echo of selected default values                                      
-   iomode0 =  0 , fftalg0 =112 , wfoptalg0 =  0
-
- outvars: echo of global parameters not present in the input file              
-  max_nthreads =    0
-
 -outvars: echo values of preprocessed input variables --------
            acell      5.9526373186E+00  5.9526373186E+00  1.8897261329E+01 Bohr
              amu      9.59400000E+01  3.20660000E+01
           diemac      1.20000000E+01
          dilatmx      1.05000000E+00
             ecut      1.70000000E+01 Hartree
           ecutsm      5.00000000E-01 Hartree
-          fftalg         112
           ionmov           2
              kpt      0.00000000E+00  0.00000000E+00  2.50000000E-01
                       5.00000000E-01  0.00000000E+00  2.50000000E-01
         kptrlatt        2    0    0      0    2    0      0    0    2
          kptrlen      1.19052746E+01
P           mkmem           2
            natom           3
            nband          10
            ngfft          24      24      75
             nkpt           2
            nstep          10
             nsym          12
            ntime          10
           ntypat           2
              occ      2.000000  2.000000  2.000000  2.000000  2.000000  2.000000
                       2.000000  2.000000  2.000000  0.000000
          optcell           1
            rprim      1.0000000000E+00  0.0000000000E+00  0.0000000000E+00
                      -5.0000000000E-01  8.6602540378E-01  0.0000000000E+00
                       0.0000000000E+00  0.0000000000E+00  1.0000000000E+00
           shiftk      0.00000000E+00  0.00000000E+00  5.00000000E-01
          spgroup         187
           symrel      1  0  0   0  1  0   0  0  1       0 -1  0  -1  0  0   0  0 -1
                      -1 -1  0   1  0  0   0  0 -1      -1  0  0   1  1  0   0  0  1
                       0  1  0  -1 -1  0   0  0  1       1  1  0   0 -1  0   0  0 -1
                       1  0  0   0  1  0   0  0 -1       0 -1  0  -1  0  0   0  0  1
                      -1 -1  0   1  0  0   0  0  1      -1  0  0   1  1  0   0  0 -1
                       0  1  0  -1 -1  0   0  0 -1       1  1  0   0 -1  0   0  0  1
           toldfe      1.00000000E-06 Hartree
            typat      1  2  2
              wtk        0.25000    0.75000
           xangst      0.0000000000E+00  0.0000000000E+00  0.0000000000E+00
                       1.5750000000E+00  9.0932667397E-01  1.5850000000E+00
                       1.5750000000E+00  9.0932667397E-01 -1.5850000000E+00
            xcart      0.0000000000E+00  0.0000000000E+00  0.0000000000E+00
                       2.9763186593E+00  1.7183783791E+00  2.9952159206E+00
                       2.9763186593E+00  1.7183783791E+00 -2.9952159206E+00
             xred      0.0000000000E+00  0.0000000000E+00  0.0000000000E+00
                       6.6666666667E-01  3.3333333333E-01  1.5850000000E-01
                       6.6666666667E-01  3.3333333333E-01 -1.5850000000E-01
            znucl       42.00000   16.00000

================================================================================

 chkinp: Checking input parameters for consistency.

================================================================================
== DATASET  1 ==================================================================
-   nproc =    1

 Exchange-correlation functional for the present dataset will be:
  LDA: new Teter (4/93) with spin-polarized option - ixc=1
 Citation for XC functional:
  S. Goedecker, M. Teter, J. Huetter, PRB 54, 1703 (1996)

 Real(R)+Recip(G) space primitive vectors, cartesian coordinates (Bohr,Bohr^-1):
 R(1)=  5.9526373  0.0000000  0.0000000  G(1)=  0.1679928  0.0969907  0.0000000
 R(2)= -2.9763187  5.1551351  0.0000000  G(2)=  0.0000000  0.1939813  0.0000000
 R(3)=  0.0000000  0.0000000 18.8972613  G(3)=  0.0000000  0.0000000  0.0529177
 Unit cell volume ucvol=  5.7989364E+02 bohr^3
 Angles (23,13,12)=  9.00000000E+01  9.00000000E+01  1.20000000E+02 degrees

 getcut: wavevector=  0.0000  0.0000  0.0000  ngfft=  24  24  75
         ecut(hartree)=     18.743   => boxcut(ratio)=   2.00934

--- Pseudopotential description ------------------------------------------------
- pspini: atom type   1  psp file is ./42mo.pspnc
- pspatm: opening atomic psp file    ./42mo.pspnc
-  Troullier-Martins psp for element  Mo        Thu Oct 27 17:40:28 EDT 1994
- 42.00000   6.00000    940714                znucl, zion, pspdat
    1    1    2    0      2001   0.00000      pspcod,pspxc,lmax,lloc,mmax,r2well
    0   4.276   7.035    0   2.8930462        l,e99.0,e99.9,nproj,rcpsp
   0.00000000   0.00000000   0.00000000   0.00000000     rms, ekb1, ekb2, epsatm
    1   1.499   2.758    1   3.1973167        l,e99.0,e99.9,nproj,rcpsp
   0.00000000   0.00000000   0.00000000   0.00000000     rms, ekb1, ekb2, epsatm
    2  11.774  15.725    1   2.1974630        l,e99.0,e99.9,nproj,rcpsp
   0.00000000   0.00000000   0.00000000   0.00000000     rms, ekb1, ekb2, epsatm
    2.63204696240783    0.28531456933550    4.53995799271176   rchrg,fchrg,qchrg
 pspatm: epsatm=   89.23647829
         --- l  ekb(1:nproj) -->
             1    0.432305
             2   -4.457359
 pspatm: atomic psp has been read  and splines computed

- pspini: atom type   2  psp file is ./S.psp8
- pspatm: opening atomic psp file    ./S.psp8
- S     ONCVPSP  r_core=  1.45  1.45  1.62
- 16.00000   6.00000    151027                znucl, zion, pspdat
    8   11    2    4       600   0.00000      pspcod,pspxc,lmax,lloc,mmax,r2well
    5.99000000000000    6.00000000000000    0.00000000000000   rchrg,fchrg,qchrg
     nproj     2     2     2
extension_switch     1
 pspatm: epsatm=    9.01629391
         --- l  ekb(1:nproj) -->
             0    6.687458    0.573856
             1    3.355342    0.912754
             2   -8.510942   -1.367258
 pspatm: atomic psp has been read  and splines computed

   1.93084319E+03                                ecore*ucvol(ha*bohr**3)
--------------------------------------------------------------------------------

_setup2: Arith. and geom. avg. npw (full set) are    2251.750    2251.747

================================================================================

=== [ionmov= 2] Broyden-Fletcher-Goldfard-Shanno method (forces)            
================================================================================

--- Iteration: ( 1/10) Internal Cycle: (1/1)
--------------------------------------------------------------------------------

---SELF-CONSISTENT-FIELD CONVERGENCE--------------------------------------------

     iter   Etot(hartree)      deltaE(h)  residm     vres2
 ETOT  1  -31.478928008913    -3.148E+01 6.759E-02 3.229E+03
 ETOT  2  -31.175835571347     3.031E-01 4.430E-03 5.484E+03
 ETOT  3  -32.121118061342    -9.453E-01 7.219E-03 5.567E+01
 ETOT  4  -32.131857482389    -1.074E-02 5.815E-03 1.267E+01
 ETOT  5  -32.132608597368    -7.511E-04 1.008E-03 2.876E+00
 ETOT  6  -32.132863367802    -2.548E-04 7.742E-04 6.139E-01
 ETOT  7  -32.132882543497    -1.918E-05 2.741E-04 5.868E-02
 ETOT  8  -32.132885973672    -3.430E-06 2.829E-04 5.836E-03
 ETOT  9  -32.132887375222    -1.402E-06 1.170E-04 6.380E-03
 ETOT 10  -32.132887754550    -3.793E-07 1.201E-04 1.293E-03

 Cartesian components of stress tensor (hartree/bohr^3)
  sigma(1 1)= -1.60531594E-04  sigma(3 2)=  0.00000000E+00
  sigma(2 2)= -1.60531594E-04  sigma(3 1)=  0.00000000E+00
  sigma(3 3)= -3.02209870E-04  sigma(2 1)=  0.00000000E+00

 Integrated electronic density in atomic spheres:
 ------------------------------------------------
 Atom  Sphere_radius  Integrated_density
    1        2.00000          2.97627287
    2        2.00000          3.89731093
    3        2.00000          3.89731093

---OUTPUT-----------------------------------------------------------------------

 Cartesian coordinates (xcart) [bohr]
  0.00000000000000E+00  0.00000000000000E+00  0.00000000000000E+00
  2.97631865929489E+00  1.71837837912920E+00  2.99521592062374E+00
  2.97631865929489E+00  1.71837837912920E+00 -2.99521592062374E+00
 Reduced coordinates (xred)
  0.00000000000000E+00  0.00000000000000E+00  0.00000000000000E+00
  6.66666666666667E-01  3.33333333333333E-01  1.58500000000000E-01
  6.66666666666667E-01  3.33333333333333E-01 -1.58500000000000E-01
 Cartesian forces (fcart) [Ha/bohr]; max,rms= 2.93830E-02 1.38513E-02 (free atoms)
  1.50781638403390E-28  8.70538195214962E-29  1.15648231731787E-18
 -7.53908192016950E-29 -4.35269097607481E-29  2.93830313003970E-02
 -7.53908192016950E-29 -4.35269097607481E-29 -2.93830313003970E-02
 Reduced forces (fred)
 -8.97548407718129E-28  8.96831017167883E-44 -2.18543485725573E-17
  4.48774203859065E-28 -8.96831017167883E-44 -5.55258821117570E-01
  4.48774203859065E-28 -8.96831017167883E-44  5.55258821117570E-01
 Scale of Primitive Cell (acell) [bohr]
  5.95263731858978E+00  5.95263731858978E+00  1.88972613288564E+01
 Real space primitive translations (rprimd) [bohr]
  5.95263731858978E+00  0.00000000000000E+00  0.00000000000000E+00
 -2.97631865929489E+00  5.15513513738761E+00  0.00000000000000E+00
  0.00000000000000E+00  0.00000000000000E+00  1.88972613288564E+01
 Unitary Cell Volume (ucvol) [Bohr^3]=  5.79893640600129E+02
 Angles (23,13,12)= [degrees]
  9.00000000000000E+01  9.00000000000000E+01  1.20000000000127E+02
 Lengths [Bohr]
  5.95263731858978E+00  5.95263731856689E+00  1.88972613288564E+01
 Stress tensor in cartesian coordinates (strten) [Ha/bohr^3]
 -1.60531594475405E-04  0.00000000000000E+00  0.00000000000000E+00
  0.00000000000000E+00 -1.60531594418193E-04  0.00000000000000E+00
  0.00000000000000E+00  0.00000000000000E+00 -3.02209870434166E-04
 Total energy (etotal) [Ha]= -3.21328877545503E+01

--- Iteration: ( 2/10) Internal Cycle: (1/1)
--------------------------------------------------------------------------------

---SELF-CONSISTENT-FIELD CONVERGENCE--------------------------------------------

     iter   Etot(hartree)      deltaE(h)  residm     vres2
 ETOT  1  -31.981171867000    -3.198E+01 4.145E-04 2.097E+03
 ETOT  2  -31.742595105517     2.386E-01 9.389E-04 1.771E+03
 ETOT  3  -32.088142545440    -3.455E-01 2.739E-03 4.601E+02
 ETOT  4  -32.133200211146    -4.506E-02 1.755E-04 5.820E+01
 ETOT  5  -32.135165647365    -1.965E-03 3.378E-05 3.143E+00
 ETOT  6  -32.135888589158    -7.229E-04 5.904E-06 3.583E-01
 ETOT  7  -32.135957224443    -6.864E-05 7.568E-06 1.287E-02
 ETOT  8  -32.135960532468    -3.308E-06 2.152E-06 1.242E-03
 ETOT  9  -32.135960874564    -3.421E-07 2.586E-06 1.596E-05
 ETOT 10  -32.135960880058    -5.495E-09 1.357E-06 1.014E-06

 At SCF step   10, etot is converged : 
  for the second time, diff in etot=  5.495E-09 < toldfe=  1.000E-06

 Cartesian components of stress tensor (hartree/bohr^3)
  sigma(1 1)= -8.82498397E-05  sigma(3 2)=  0.00000000E+00
  sigma(2 2)= -8.82498396E-05  sigma(3 1)=  0.00000000E+00
  sigma(3 3)= -1.64211410E-04  sigma(2 1)=  0.00000000E+00

 Integrated electronic density in atomic spheres:
 ------------------------------------------------
 Atom  Sphere_radius  Integrated_density
    1        2.00000          2.95460061
    2        2.00000          3.86317699
    3        2.00000          3.86317699

---OUTPUT-----------------------------------------------------------------------

 Cartesian coordinates (xcart) [bohr]
  1.51721419733971E-28  8.75964025256895E-29  1.16369036003760E-18
  2.99486925165802E+00  1.72908856862363E+00  3.04345046234419E+00
  2.99486925165802E+00  1.72908856862363E+00 -3.04345046234419E+00
 Reduced coordinates (xred)
  3.37736323882062E-29  1.68868161942329E-29  6.11984084461966E-20
  6.66666666666667E-01  3.33333333333333E-01  1.60054883048346E-01
  6.66666666666667E-01  3.33333333333333E-01 -1.60054883048346E-01
 Cartesian forces (fcart) [Ha/bohr]; max,rms= 1.58161E-02 7.45580E-03 (free atoms)
  7.49238390975857E-29  4.32572986719330E-29 -0.00000000000000E+00
 -3.74619195487928E-29 -2.16286493359665E-29  1.58161357675106E-02
 -3.74619195487928E-29 -2.16286493359665E-29 -1.58161357675106E-02
 Reduced forces (fred)
 -4.48774203859064E-28 -0.00000000000000E+00 -0.00000000000000E+00
  2.24387101929532E-28  2.24207754291971E-44 -3.00744499620102E-01
  2.24387101929532E-28  2.24207754291971E-44  3.00744499620102E-01
 Scale of Primitive Cell (acell) [bohr]
  5.98973850331604E+00  5.98973850331604E+00  1.90150428676700E+01
 Real space primitive translations (rprimd) [bohr]
  5.98973850331604E+00  0.00000000000000E+00  0.00000000000000E+00
 -2.99486925165802E+00  5.18726570587088E+00  0.00000000000000E+00
  0.00000000000000E+00  0.00000000000000E+00  1.90150428676700E+01
 Unitary Cell Volume (ucvol) [Bohr^3]=  5.90804324773366E+02
 Angles (23,13,12)= [degrees]
  9.00000000000000E+01  9.00000000000000E+01  1.20000000000127E+02
 Lengths [Bohr]
  5.98973850331604E+00  5.98973850329301E+00  1.90150428676700E+01
 Stress tensor in cartesian coordinates (strten) [Ha/bohr^3]
 -8.82498396837517E-05  0.00000000000000E+00  0.00000000000000E+00
  0.00000000000000E+00 -8.82498396279525E-05  0.00000000000000E+00
  0.00000000000000E+00  0.00000000000000E+00 -1.64211409959565E-04
 Total energy (etotal) [Ha]= -3.21359608800582E+01

 Difference of energy with previous step (new-old):
           Absolute (Ha)=-3.07313E-03
           Relative     =-9.56334E-05

--- Iteration: ( 3/10) Internal Cycle: (1/1)
--------------------------------------------------------------------------------

---SELF-CONSISTENT-FIELD CONVERGENCE--------------------------------------------

     iter   Etot(hartree)      deltaE(h)  residm     vres2
 ETOT  1  -31.884946620059    -3.188E+01 1.329E-03 3.361E+03
 ETOT  2  -31.296631951658     5.883E-01 5.832E-04 3.872E+03
 ETOT  3  -32.045861937121    -7.492E-01 4.901E-03 8.124E+02
 ETOT  4  -32.129730379363    -8.387E-02 3.550E-04 1.203E+02
 ETOT  5  -32.135963849364    -6.233E-03 8.957E-05 5.307E+00
 ETOT  6  -32.136833652432    -8.698E-04 2.609E-06 2.050E+00
 ETOT  7  -32.137301691714    -4.680E-04 2.827E-06 1.035E-02
 ETOT  8  -32.137305071464    -3.380E-06 3.509E-07 4.485E-03
 ETOT  9  -32.137306143601    -1.072E-06 2.630E-07 5.811E-05
 ETOT 10  -32.137306155589    -1.199E-08 4.221E-07 2.204E-06

 Cartesian components of stress tensor (hartree/bohr^3)
  sigma(1 1)=  1.69391157E-05  sigma(3 2)=  0.00000000E+00
  sigma(2 2)=  1.69391158E-05  sigma(3 1)=  0.00000000E+00
  sigma(3 3)= -1.77165514E-05  sigma(2 1)=  0.00000000E+00

 Integrated electronic density in atomic spheres:
 ------------------------------------------------
 Atom  Sphere_radius  Integrated_density
    1        2.00000          2.91692004
    2        2.00000          3.82040887
    3        2.00000          3.82040887

---OUTPUT-----------------------------------------------------------------------

 Cartesian coordinates (xcart) [bohr]
  3.22912461281032E-28  1.86433596446244E-28  1.17295267914121E-18
  3.01784823997806E+00  1.74235549371584E+00  3.10269352958625E+00
  3.01784823997806E+00  1.74235549371584E+00 -3.10269352958625E+00
 Reduced coordinates (xred)
  7.13339296973632E-29  3.56669648489558E-29  6.12158174547850E-20
  6.66666666666667E-01  3.33333333333333E-01  1.61928033502900E-01
  6.66666666666667E-01  3.33333333333333E-01 -1.61928033502900E-01
 Cartesian forces (fcart) [Ha/bohr]; max,rms= 1.16446E-03 5.48933E-04 (free atoms)
 -0.00000000000000E+00 -0.00000000000000E+00 -0.00000000000000E+00
 -0.00000000000000E+00 -0.00000000000000E+00  1.16446295569571E-03
 -0.00000000000000E+00 -0.00000000000000E+00 -1.16446295569571E-03
 Reduced forces (fred)
  0.00000000000000E+00 -0.00000000000000E+00  0.00000000000000E+00
 -0.00000000000000E+00 -0.00000000000000E+00 -2.23122062308948E-02
  0.00000000000000E+00 -0.00000000000000E+00  2.23122062308948E-02
 Scale of Primitive Cell (acell) [bohr]
  6.03569647995612E+00  6.03569647995612E+00  1.91609412062099E+01
 Real space primitive translations (rprimd) [bohr]
  6.03569647995612E+00  0.00000000000000E+00  0.00000000000000E+00
 -3.01784823997806E+00  5.22706648114752E+00  0.00000000000000E+00
  0.00000000000000E+00  0.00000000000000E+00  1.91609412062099E+01
 Unitary Cell Volume (ucvol) [Bohr^3]=  6.04508280438393E+02
 Angles (23,13,12)= [degrees]
  9.00000000000000E+01  9.00000000000000E+01  1.20000000000127E+02
 Lengths [Bohr]
  6.03569647995612E+00  6.03569647993292E+00  1.91609412062099E+01
 Stress tensor in cartesian coordinates (strten) [Ha/bohr^3]
  1.69391157294743E-05  0.00000000000000E+00  0.00000000000000E+00
  0.00000000000000E+00  1.69391157838076E-05  0.00000000000000E+00
  0.00000000000000E+00  0.00000000000000E+00 -1.77165513623890E-05
 Total energy (etotal) [Ha]= -3.21373061555895E+01

 Difference of energy with previous step (new-old):
           Absolute (Ha)=-1.34528E-03
           Relative     =-4.18611E-05

--- Iteration: ( 4/10) Internal Cycle: (1/1)
--------------------------------------------------------------------------------

---SELF-CONSISTENT-FIELD CONVERGENCE--------------------------------------------

     iter   Etot(hartree)      deltaE(h)  residm     vres2
 ETOT  1  -32.137293651811    -3.214E+01 1.761E-06 3.180E-01
 ETOT  2  -32.137293673858    -2.205E-08 7.875E-06 5.543E-02
 ETOT  3  -32.137300641163    -6.967E-06 5.683E-07 1.222E-01
 ETOT  4  -32.137310248493    -9.607E-06 4.866E-06 9.237E-03
 ETOT  5  -32.137310440186    -1.917E-07 4.977E-07 2.821E-04
 ETOT  6  -32.137310458253    -1.807E-08 6.686E-06 6.945E-06

 At SCF step    6, etot is converged : 
  for the second time, diff in etot=  1.807E-08 < toldfe=  1.000E-06

 Cartesian components of stress tensor (hartree/bohr^3)
  sigma(1 1)=  1.64812716E-05  sigma(3 2)=  0.00000000E+00
  sigma(2 2)=  1.64812716E-05  sigma(3 1)=  0.00000000E+00
  sigma(3 3)= -1.72040683E-05  sigma(2 1)=  0.00000000E+00

 Integrated electronic density in atomic spheres:
 ------------------------------------------------
 Atom  Sphere_radius  Integrated_density
    1        2.00000          2.91622979
    2        2.00000          3.81974626
    3        2.00000          3.81974626

---OUTPUT-----------------------------------------------------------------------

 Cartesian coordinates (xcart) [bohr]
  3.23426776068108E-28  1.86730536227012E-28  1.17212757663639E-18
  3.01742214005232E+00  1.74210948480902E+00  3.10357571069013E+00
  3.01742214005232E+00  1.74210948480902E+00 -3.10357571069013E+00
 Reduced coordinates (xred)
  7.14576352610993E-29  3.57288176308243E-29  6.11813941674832E-20
  6.66666666666667E-01  3.33333333333333E-01  1.61996946978463E-01
  6.66666666666667E-01  3.33333333333333E-01 -1.61996946978463E-01
 Cartesian forces (fcart) [Ha/bohr]; max,rms= 1.06485E-03 5.01973E-04 (free atoms)
  7.43638415557067E-29  4.29339839403820E-29 -0.00000000000000E+00
 -3.71819207778534E-29 -2.14669919701910E-29  1.06484570928786E-03
 -3.71819207778534E-29 -2.14669919701910E-29 -1.06484570928786E-03
 Reduced forces (fred)
 -4.48774203859065E-28  4.48415508583941E-44 -0.00000000000000E+00
  2.24387101929532E-28 -0.00000000000000E+00 -2.04005651996502E-02
  2.24387101929532E-28 -0.00000000000000E+00  2.04005651996502E-02
 Scale of Primitive Cell (acell) [bohr]
  6.03484428010464E+00  6.03484428010464E+00  1.91582358098560E+01
 Real space primitive translations (rprimd) [bohr]
  6.03484428010464E+00  0.00000000000000E+00  0.00000000000000E+00
 -3.01742214005232E+00  5.22632845442705E+00  0.00000000000000E+00
  0.00000000000000E+00  0.00000000000000E+00  1.91582358098560E+01
 Unitary Cell Volume (ucvol) [Bohr^3]=  6.04252259049043E+02
 Angles (23,13,12)= [degrees]
  9.00000000000000E+01  9.00000000000000E+01  1.20000000000127E+02
 Lengths [Bohr]
  6.03484428010464E+00  6.03484428008144E+00  1.91582358098560E+01
 Stress tensor in cartesian coordinates (strten) [Ha/bohr^3]
  1.64812715543429E-05  0.00000000000000E+00  0.00000000000000E+00
  0.00000000000000E+00  1.64812716087160E-05  0.00000000000000E+00
  0.00000000000000E+00  0.00000000000000E+00 -1.72040682910012E-05
 Total energy (etotal) [Ha]= -3.21373104582526E+01

 Difference of energy with previous step (new-old):
           Absolute (Ha)=-4.30266E-06
           Relative     =-1.33884E-07

--- Iteration: ( 5/10) Internal Cycle: (1/1)
--------------------------------------------------------------------------------

---SELF-CONSISTENT-FIELD CONVERGENCE--------------------------------------------

     iter   Etot(hartree)      deltaE(h)  residm     vres2
 ETOT  1  -32.132585176155    -3.213E+01 3.017E-02 8.666E+01
 ETOT  2  -32.131954026101     6.312E-04 2.382E-05 1.846E+01
 ETOT  3  -32.134915662675    -2.962E-03 5.567E-05 3.073E+01
 ETOT  4  -32.137289208606    -2.374E-03 8.536E-06 2.299E+00
 ETOT  5  -32.137338759558    -4.955E-05 3.625E-06 7.021E-02
 ETOT  6  -32.137342520298    -3.761E-06 7.932E-07 2.392E-03
 ETOT  7  -32.137342504142     1.616E-08 2.792E-06 4.065E-04
 ETOT  8  -32.137342601349    -9.721E-08 4.513E-07 2.574E-05

 At SCF step    8, etot is converged : 
  for the second time, diff in etot=  9.721E-08 < toldfe=  1.000E-06

 Cartesian components of stress tensor (hartree/bohr^3)
  sigma(1 1)=  7.33245986E-06  sigma(3 2)=  0.00000000E+00
  sigma(2 2)=  7.33245991E-06  sigma(3 1)=  0.00000000E+00
  sigma(3 3)= -1.23654880E-05  sigma(2 1)=  0.00000000E+00

 Integrated electronic density in atomic spheres:
 ------------------------------------------------
 Atom  Sphere_radius  Integrated_density
    1        2.00000          2.90598982
    2        2.00000          3.84378480
    3        2.00000          3.84378480

---OUTPUT-----------------------------------------------------------------------

 Cartesian coordinates (xcart) [bohr]
  1.46957381681163E-27  8.48458838734572E-28  1.15999836951854E-18
  3.01066471776296E+00  1.73820808523125E+00  3.11468640471444E+00
  3.01066471776296E+00  1.73820808523125E+00 -3.11468640471444E+00
 Reduced coordinates (xred)
  3.25415139087590E-28  1.62707569545046E-28  6.06841878211275E-20
  6.66666666666667E-01  3.33333333333333E-01  1.62941793501015E-01
  6.66666666666667E-01  3.33333333333333E-01 -1.62941793501015E-01
 Cartesian forces (fcart) [Ha/bohr]; max,rms= 3.13278E-06 1.47681E-06 (free atoms)
  1.49061501671472E-29  8.60606981162750E-30 -0.00000000000000E+00
 -7.45307508357358E-30 -4.30303490581375E-30 -3.13277797294017E-06
 -7.45307508357358E-30 -4.30303490581375E-30  3.13277797294017E-06
 Reduced forces (fred)
 -8.97548407718129E-29  1.12103877145985E-44 -0.00000000000000E+00
  4.48774203859064E-29 -5.60519385729927E-45  5.98840895981965E-05
  4.48774203859064E-29 -5.60519385729927E-45 -5.98840895981965E-05
 Scale of Primitive Cell (acell) [bohr]
  6.02132943552593E+00  6.02132943552593E+00  1.91153315413521E+01
 Real space primitive translations (rprimd) [bohr]
  6.02132943552593E+00  0.00000000000000E+00  0.00000000000000E+00
 -3.01066471776296E+00  5.21462425569374E+00  0.00000000000000E+00
  0.00000000000000E+00  0.00000000000000E+00  1.91153315413521E+01
 Unitary Cell Volume (ucvol) [Bohr^3]=  6.00201731661944E+02
 Angles (23,13,12)= [degrees]
  9.00000000000000E+01  9.00000000000000E+01  1.20000000000127E+02
 Lengths [Bohr]
  6.02132943552593E+00  6.02132943550278E+00  1.91153315413521E+01
 Stress tensor in cartesian coordinates (strten) [Ha/bohr^3]
  7.33245985862739E-06  0.00000000000000E+00  0.00000000000000E+00
  0.00000000000000E+00  7.33245991363981E-06  0.00000000000000E+00
  0.00000000000000E+00  0.00000000000000E+00 -1.23654880353615E-05
 Total energy (etotal) [Ha]= -3.21373426013485E+01

 Difference of energy with previous step (new-old):
           Absolute (Ha)=-3.21431E-05
           Relative     =-1.00018E-06

--- Iteration: ( 6/10) Internal Cycle: (1/1)
--------------------------------------------------------------------------------

---SELF-CONSISTENT-FIELD CONVERGENCE--------------------------------------------

     iter   Etot(hartree)      deltaE(h)  residm     vres2
 ETOT  1  -32.137313632795    -3.214E+01 1.036E-06 4.939E-01
 ETOT  2  -32.137304086999     9.546E-06 1.285E-06 1.409E-01
 ETOT  3  -32.137330228820    -2.614E-05 2.533E-06 1.537E-01
 ETOT  4  -32.137342440072    -1.221E-05 7.535E-07 1.255E-02
 ETOT  5  -32.137342716511    -2.764E-07 1.571E-06 3.936E-04
 ETOT  6  -32.137342738950    -2.244E-08 8.774E-07 8.746E-06

 At SCF step    6, etot is converged : 
  for the second time, diff in etot=  2.244E-08 < toldfe=  1.000E-06

 Cartesian components of stress tensor (hartree/bohr^3)
  sigma(1 1)=  6.19799927E-06  sigma(3 2)=  0.00000000E+00
  sigma(2 2)=  6.19799932E-06  sigma(3 1)=  0.00000000E+00
  sigma(3 3)= -1.26936039E-05  sigma(2 1)=  0.00000000E+00

 Integrated electronic density in atomic spheres:
 ------------------------------------------------
 Atom  Sphere_radius  Integrated_density
    1        2.00000          2.90529563
    2        2.00000          3.84312557
    3        2.00000          3.84312557

---OUTPUT-----------------------------------------------------------------------

 Cartesian coordinates (xcart) [bohr]
  1.53708297211610E-27  8.87435267722566E-28  1.15930744906716E-18
  3.01020370538091E+00  1.73794191960837E+00  3.11503107595075E+00
  3.01020370538091E+00  1.73794191960837E+00 -3.11503107595075E+00
 Reduced coordinates (xred)
  3.40416158408684E-28  1.70208079205651E-28  6.06573312303372E-20
  6.66666666666667E-01  3.33333333333333E-01  1.62984781921979E-01
  6.66666666666667E-01  3.33333333333333E-01 -1.62984781921979E-01
 Cartesian forces (fcart) [Ha/bohr]; max,rms= 2.76324E-05 1.30260E-05 (free atoms)
  4.47252991274499E-29  2.58221634909521E-29 -0.00000000000000E+00
 -2.23626495637249E-29 -1.29110817454760E-29  2.76323726192690E-05
 -2.23626495637249E-29 -1.29110817454760E-29 -2.76323726192690E-05
 Reduced forces (fred)
 -2.69264522315439E-28  2.24207754291971E-44 -0.00000000000000E+00
  1.34632261157719E-28 -1.12103877145985E-44 -5.28121082203108E-04
  1.34632261157719E-28 -1.12103877145985E-44  5.28121082203108E-04
 Scale of Primitive Cell (acell) [bohr]
  6.02040741076183E+00  6.02040741076183E+00  1.91124044786090E+01
 Real space primitive translations (rprimd) [bohr]
  6.02040741076183E+00  0.00000000000000E+00  0.00000000000000E+00
 -3.01020370538091E+00  5.21382575882512E+00  0.00000000000000E+00
  0.00000000000000E+00  0.00000000000000E+00  1.91124044786090E+01
 Unitary Cell Volume (ucvol) [Bohr^3]=  5.99926053609451E+02
 Angles (23,13,12)= [degrees]
  9.00000000000000E+01  9.00000000000000E+01  1.20000000000127E+02
 Lengths [Bohr]
  6.02040741076183E+00  6.02040741073868E+00  1.91124044786090E+01
 Stress tensor in cartesian coordinates (strten) [Ha/bohr^3]
  6.19799926748418E-06  0.00000000000000E+00  0.00000000000000E+00
  0.00000000000000E+00  6.19799932253390E-06  0.00000000000000E+00
  0.00000000000000E+00  0.00000000000000E+00 -1.26936038939577E-05
 Total energy (etotal) [Ha]= -3.21373427389504E+01

 Difference of energy with previous step (new-old):
           Absolute (Ha)=-1.37602E-07
           Relative     =-4.28168E-09

 At Broyd/MD step   6, gradients are converged : 
  max grad (force/stress) = 2.7632E-05 < tolmxf= 5.0000E-05 ha/bohr (free atoms)

================================================================================

 ----iterations are completed or convergence reached----

 Mean square residual over all n,k,spin=   4.3953E-08; max=  8.7737E-07
 reduced coordinates (array xred) for    3 atoms
       0.000000000000      0.000000000000      0.000000000000
       0.666666666667      0.333333333333      0.162984781922
       0.666666666667      0.333333333333     -0.162984781922
 rms dE/dt=  2.4896E-04; max dE/dt=  5.2812E-04; dE/dt below (all hartree)
    1      -0.000000000000      0.000000000000      0.000000000000
    2      -0.000000000000      0.000000000000     -0.000528121082
    3      -0.000000000000      0.000000000000      0.000528121082

 cartesian coordinates (angstrom) at end:
    1      0.00000000000000     0.00000000000000     0.00000000000000
    2      1.59293119410075     0.91967925370990     1.64840344944272
    3      1.59293119410075     0.91967925370990    -1.64840344944272

 cartesian forces (hartree/bohr) at end:
    1      0.00000000000000     0.00000000000000    -0.00000000000000
    2     -0.00000000000000    -0.00000000000000     0.00002763237262
    3     -0.00000000000000    -0.00000000000000    -0.00002763237262
 frms,max,avg= 1.3026025E-05 2.7632373E-05   0.000E+00  0.000E+00  0.000E+00 h/b

 cartesian forces (eV/Angstrom) at end:
    1      0.00000000000000     0.00000000000000    -0.00000000000000
    2     -0.00000000000000    -0.00000000000000     0.00142091361098
    3     -0.00000000000000    -0.00000000000000    -0.00142091361098
 frms,max,avg= 6.6982510E-04 1.4209136E-03   0.000E+00  0.000E+00  0.000E+00 e/A
 length scales=  6.020407410762  6.020407410762 19.112404478609 bohr
              =  3.185862388201  3.185862388201 10.113848851433 angstroms
 prteigrs : about to open file mos2_3o_EIG
 Fermi (or HOMO) energy (hartree) =  -0.09872   Average Vxc (hartree)=  -0.28427
 Eigenvalues (hartree) for nkpt=   2  k points:
 kpt#   1, nband= 10, wtk=  0.25000, kpt=  0.0000  0.0000  0.2500 (reduced coord)
  -0.59949   -0.56211   -0.28919   -0.17441   -0.17441   -0.15703   -0.13016   -0.13016
  -0.09872    0.01197
 prteigrs : prtvol=0 or 1, do not print more k-points.


--------------------------------------------------------------------------------
 Components of total free energy (in Hartree) :

    Kinetic energy  =  1.56702421668561E+01
    Hartree energy  =  2.58522422120206E+01
    XC energy       = -1.08269659824790E+01
    Ewald energy    = -3.10482231053010E+00
    PspCore energy  =  3.21846864025852E+00
    Loc. psp. energy= -5.70990121849704E+01
    NL   psp  energy= -5.84749528010609E+00
    >>>>>>>>> Etotal= -3.21373427389504E+01

 Other information on the energy :
    Total energy(eV)= -8.74501569509963E+02 ; Band energy (Ha)=  -4.8010989825E+00
--------------------------------------------------------------------------------
 rms coord change=  2.1141E-03   atom, delta coord (reduced):
     1        0.000000000000      0.000000000000      0.000000000000
     2        0.000000000000      0.000000000000      0.004484781922
     3        0.000000000000      0.000000000000     -0.004484781922

 Cartesian components of stress tensor (hartree/bohr^3)
  sigma(1 1)=  6.19799927E-06  sigma(3 2)=  0.00000000E+00
  sigma(2 2)=  6.19799932E-06  sigma(3 1)=  0.00000000E+00
  sigma(3 3)= -1.26936039E-05  sigma(2 1)=  0.00000000E+00

-Cartesian components of stress tensor (GPa)         [Pressure=  2.9186E-03 GPa]
- sigma(1 1)=  1.82351403E-01  sigma(3 2)=  0.00000000E+00
- sigma(2 2)=  1.82351405E-01  sigma(3 1)=  0.00000000E+00
- sigma(3 3)= -3.73458657E-01  sigma(2 1)=  0.00000000E+00

== END DATASET(S) ==============================================================
================================================================================
  
 -outvars: echo values of variables after computation  --------
            acell      6.0204074108E+00  6.0204074108E+00  1.9112404479E+01 Bohr
              amu      9.59400000E+01  3.20660000E+01
           diemac      1.20000000E+01
          dilatmx      1.05000000E+00
             ecut      1.70000000E+01 Hartree
           ecutsm      5.00000000E-01 Hartree
           etotal     -3.2137342739E+01
            fcart      4.4725299127E-29  2.5822163491E-29 -0.0000000000E+00
                      -2.2362649564E-29 -1.2911081745E-29  2.7632372619E-05
                      -2.2362649564E-29 -1.2911081745E-29 -2.7632372619E-05
-          fftalg         112
           ionmov           2
              kpt      0.00000000E+00  0.00000000E+00  2.50000000E-01
                       5.00000000E-01  0.00000000E+00  2.50000000E-01
         kptrlatt        2    0    0      0    2    0      0    0    2
          kptrlen      1.19052746E+01
P           mkmem           2
            natom           3
            nband          10
            ngfft          24      24      75
             nkpt           2
            nstep          10
             nsym          12
            ntime          10
           ntypat           2
              occ      2.000000  2.000000  2.000000  2.000000  2.000000  2.000000
                       2.000000  2.000000  2.000000  0.000000
          optcell           1
            rprim      1.0000000000E+00  0.0000000000E+00  0.0000000000E+00
                      -5.0000000000E-01  8.6602540378E-01  0.0000000000E+00
                       0.0000000000E+00  0.0000000000E+00  1.0000000000E+00
           shiftk      0.00000000E+00  0.00000000E+00  5.00000000E-01
          spgroup         187
           strten      6.1979992675E-06  6.1979993225E-06 -1.2693603894E-05
                       0.0000000000E+00  0.0000000000E+00  0.0000000000E+00
           symrel      1  0  0   0  1  0   0  0  1       0 -1  0  -1  0  0   0  0 -1
                      -1 -1  0   1  0  0   0  0 -1      -1  0  0   1  1  0   0  0  1
                       0  1  0  -1 -1  0   0  0  1       1  1  0   0 -1  0   0  0 -1
                       1  0  0   0  1  0   0  0 -1       0 -1  0  -1  0  0   0  0  1
                      -1 -1  0   1  0  0   0  0  1      -1  0  0   1  1  0   0  0 -1
                       0  1  0  -1 -1  0   0  0 -1       1  1  0   0 -1  0   0  0  1
           toldfe      1.00000000E-06 Hartree
            typat      1  2  2
              wtk        0.25000    0.75000
           xangst      8.1338927656E-28  4.6961051778E-28  6.1347907979E-19
                       1.5929311941E+00  9.1967925371E-01  1.6484034494E+00
                       1.5929311941E+00  9.1967925371E-01 -1.6484034494E+00
            xcart      1.5370829721E-27  8.8743526772E-28  1.1593074491E-18
                       3.0102037054E+00  1.7379419196E+00  3.1150310760E+00
                       3.0102037054E+00  1.7379419196E+00 -3.1150310760E+00
             xred      3.4041615841E-28  1.7020807921E-28  6.0657331230E-20
                       6.6666666667E-01  3.3333333333E-01  1.6298478192E-01
                       6.6666666667E-01  3.3333333333E-01 -1.6298478192E-01
            znucl       42.00000   16.00000

================================================================================

- Total cpu        time (s,m,h):         44.0        0.73      0.012
- Total wall clock time (s,m,h):         14.4        0.24      0.004
-
- For major independent code sections, cpu and wall times (sec),
-  as well as % of the time and number of calls for node 0-
-<BEGIN_TIMER mpi_nprocs = 1, omp_nthreads = 1, mpi_rank = 0>
- cpu_time =           44.0, wall_time =           14.4
-
- routine                        cpu     %       wall     %      number of calls  Gflops    Speedup Efficacity
-                                                                  (-1=no count)
- fourwf%(pot)                  20.132  45.7      6.319  43.9           6181      -1.00        3.19       3.19
- nonlop(apply)                  9.320  21.2      2.832  19.7           6181      -1.00        3.29       3.29
- projbd                         4.116   9.3      1.403   9.7           9882      -1.00        2.93       2.93
- fourwf%(den)                   2.056   4.7      0.518   3.6            900      -1.00        3.97       3.97
- pspini                         1.196   2.7      1.102   7.7              1      -1.00        1.09       1.09
- vtowfk(ssdiag)                 0.672   1.5      0.191   1.3             -1      -1.00        3.52       3.52
- nonlop(forstr)                 0.668   1.5      0.168   1.2            108      -1.00        3.98       3.98
- xc:pot/=fourdp                 0.632   1.4      0.170   1.2             56      -1.00        3.72       3.72
- fourdp                         0.628   1.4      0.173   1.2            260      -1.00        3.63       3.63
- mkcore                         0.552   1.3      0.164   1.1             18      -1.00        3.37       3.37
- stress                         0.536   1.2      0.184   1.3              6      -1.00        2.91       2.91
- getghc-other                   0.484   1.1      0.123   0.9             -1      -1.00        3.94       3.94
- forces                         0.348   0.8      0.087   0.6              6      -1.00        4.00       4.00
- symrhg(no FFT)                 0.340   0.8      0.085   0.6             50      -1.00        4.00       4.00
- others (99)                    0.596   1.4      0.276   1.9             -1      -1.00        2.16       2.16
-<END_TIMER>
-
- subtotal                      42.276  96.0     13.795  95.8                                  3.06       3.06

- For major independent code sections, cpu and wall times (sec),
- as well as % of the total time and number of calls 

-<BEGIN_TIMER mpi_nprocs = 1, omp_nthreads = 1, mpi_rank = world>
- cpu_time =          44.0, wall_time =          14.4
-
- routine                         cpu     %       wall     %      number of calls Gflops    Speedup Efficacity
-                                                                  (-1=no count)
- fourwf%(pot)                  20.132  45.7      6.319  43.9           6181      -1.00        3.19       3.19
- nonlop(apply)                  9.320  21.2      2.832  19.7           6181      -1.00        3.29       3.29
- projbd                         4.116   9.3      1.403   9.7           9882      -1.00        2.93       2.93
- fourwf%(den)                   2.056   4.7      0.518   3.6            900      -1.00        3.97       3.97
- pspini                         1.196   2.7      1.102   7.7              1      -1.00        1.09       1.09
- vtowfk(ssdiag)                 0.672   1.5      0.191   1.3             -1      -1.00        3.52       3.52
- nonlop(forstr)                 0.668   1.5      0.168   1.2            108      -1.00        3.98       3.98
- xc:pot/=fourdp                 0.632   1.4      0.170   1.2             56      -1.00        3.72       3.72
- fourdp                         0.628   1.4      0.173   1.2            260      -1.00        3.63       3.63
- mkcore                         0.552   1.3      0.164   1.1             18      -1.00        3.37       3.37
- stress                         0.536   1.2      0.184   1.3              6      -1.00        2.91       2.91
- getghc-other                   0.484   1.1      0.123   0.9             -1      -1.00        3.94       3.94
- forces                         0.348   0.8      0.087   0.6              6      -1.00        4.00       4.00
- symrhg(no FFT)                 0.340   0.8      0.085   0.6             50      -1.00        4.00       4.00
- others (99)                    0.596   1.4      0.276   1.9             -1      -1.00        2.16       2.16
-<END_TIMER>

- subtotal                      42.276  96.0     13.795  95.8                                  3.06       3.06

================================================================================

 Suggested references for the acknowledgment of ABINIT usage.

 The users of ABINIT have little formal obligations with respect to the ABINIT group
 (those specified in the GNU General Public License, http://www.gnu.org/copyleft/gpl.txt).
 However, it is common practice in the scientific literature,
 to acknowledge the efforts of people that have made the research possible.
 In this spirit, please find below suggested citations of work written by ABINIT developers,
 corresponding to implementations inside of ABINIT that you have used in the present run.
 Note also that it will be of great value to readers of publications presenting these results,
 to read papers enabling them to understand the theoretical formalism and details
 of the ABINIT implementation.
 For information on why they are suggested, see also http://www.abinit.org/about/?text=acknowledgments.
-
- [1] Recent developments in the ABINIT software package.
- Computer Phys. Comm. 205, 106 (2016).
- X.Gonze, F.Jollet, F.Abreu Araujo, D.Adams, B.Amadon, T.Applencourt,
- C.Audouze, J.-M.Beuken, J.Bieder, A.Bokhanchuk, E.Bousquet, F.Bruneval
- D.Caliste, M.Cote, F.Dahm, F.Da Pieve, M.Delaveau, M.Di Gennaro,
- B.Dorado, C.Espejo, G.Geneste, L.Genovese, A.Gerossier, M.Giantomassi,
- Y.Gillet, D.R.Hamann, L.He, G.Jomard, J.Laflamme Janssen, S.Le Roux,
- A.Levitt, A.Lherbier, F.Liu, I.Lukacevic, A.Martin, C.Martins,
- M.J.T.Oliveira, S.Ponce, Y.Pouillon, T.Rangel, G.-M.Rignanese,
- A.H.Romero, B.Rousseau, O.Rubel, A.A.Shukri, M.Stankovski, M.Torrent,
- M.J.Van Setten, B.Van Troeye, M.J.Verstraete, D.Waroquier, J.Wiktor,
- B.Xue, A.Zhou, J.W.Zwanziger.
- Comment : the fourth generic paper describing the ABINIT project.
- Note that a version of this paper, that is not formatted for Computer Phys. Comm. 
- is available at http://www.abinit.org/about/ABINIT16.pdf .
- The licence allows the authors to put it on the Web.
-
- [2] Optimized norm-conserving Vanderbilt pseudopotentials.
- D.R. Hamann, Phys. Rev. B 88, 085117 (2013).
- Comment: Some pseudopotential generated using the ONCVPSP code were used.
-
- [3] ABINIT : First-principles approach of materials and nanosystem properties.
- Computer Phys. Comm. 180, 2582-2615 (2009).
- X. Gonze, B. Amadon, P.-M. Anglade, J.-M. Beuken, F. Bottin, P. Boulanger, F. Bruneval,
- D. Caliste, R. Caracas, M. Cote, T. Deutsch, L. Genovese, Ph. Ghosez, M. Giantomassi
- S. Goedecker, D.R. Hamann, P. Hermet, F. Jollet, G. Jomard, S. Leroux, M. Mancini, S. Mazevet,
- M.J.T. Oliveira, G. Onida, Y. Pouillon, T. Rangel, G.-M. Rignanese, D. Sangalli, R. Shaltaf,
- M. Torrent, M.J. Verstraete, G. Zerah, J.W. Zwanziger
- Comment : the third generic paper describing the ABINIT project.
- Note that a version of this paper, that is not formatted for Computer Phys. Comm. 
- is available at http://www.abinit.org/about/ABINIT_CPC_v10.pdf .
- The licence allows the authors to put it on the Web.
-
- [4] A brief introduction to the ABINIT software package.
- Z. Kristallogr. 220, 558-562 (2005).
- X. Gonze, G.-M. Rignanese, M. Verstraete, J.-M. Beuken, Y. Pouillon, R. Caracas, F. Jollet,
- M. Torrent, G. Zerah, M. Mikami, Ph. Ghosez, M. Veithen, J.-Y. Raty, V. Olevano, F. Bruneval,
- L. Reining, R. Godby, G. Onida, D.R. Hamann, and D.C. Allan.
- Comment : the second generic paper describing the ABINIT project. Note that this paper
- should be cited especially if you are using the GW part of ABINIT, as several authors
- of this part are not in the list of authors of the first or third paper.
- The .pdf of the latter paper is available at http://www.abinit.org/about/zfk_0505-06_558-562.pdf.
- Note that it should not redistributed (Copyright by Oldenburg Wissenshaftverlag,
- the licence allows the authors to put it on the Web).
-
- And optionally:
-
- [5] First-principles computation of material properties : the ABINIT software project. 
- X. Gonze, J.-M. Beuken, R. Caracas, F. Detraux, M. Fuchs, G.-M. Rignanese, L. Sindic,
- M. Verstraete, G. Zerah, F. Jollet, M. Torrent, A. Roy, M. Mikami, Ph. Ghosez, J.-Y. Raty, D.C. Allan.
- Computational Materials Science 25, 478-492 (2002). http://dx.doi.org/10.1016/S0927-0256(02)00325-7
- Comment : the original paper describing the ABINIT project.
-
- Proc.   0 individual time (sec): cpu=         44.1  wall=         14.4

================================================================================

 Calculation completed.
.Delivered   7 WARNINGs and   0 COMMENTs to log file.
+Overall time at end (sec) : cpu=         44.1  wall=         14.4
