
.Version 8.4.1 of ABINIT 
.(sequential version, prepared for a x86_64_linux_gnu7.0 computer) 

.Copyright (C) 1998-2017 ABINIT group . 
 ABINIT comes with ABSOLUTELY NO WARRANTY.
 It is free software, and you are welcome to redistribute it
 under certain conditions (GNU General Public License,
 see ~abinit/COPYING or http://www.gnu.org/copyleft/gpl.txt).

 ABINIT is a project of the Universite Catholique de Louvain,
 Corning Inc. and other collaborators, see ~abinit/doc/developers/contributors.txt .
 Please read ~abinit/doc/users/acknowledgments.html for suggested
 acknowledgments of the ABINIT effort.
 For more information, see http://www.abinit.org .

.Starting date : Wed  9 Aug 2017.
- ( at 10h40 )
  
- input  file    -> mos2_5.in
- output file    -> mos2_5.out
- root for input  files -> mos2_5i
- root for output files -> mos2_5o


 DATASET    1 : space group P-6 m 2 (#187); Bravais hP (primitive hexag.)
================================================================================
 Values of the parameters that define the memory need for DATASET  1.
     intxc =       0    ionmov =       0      iscf =       7    lmnmax =       6
     lnmax =       6     mgfft =      72  mpssoang =       3    mqgrid =    3548
     natom =       3  nloc_mem =       1    nspden =       1   nspinor =       1
    nsppol =       1      nsym =      12    n1xccc =    2501    ntypat =       2
    occopt =       1   xclevel =       1
-    mband =          10        mffmem =           1         mkmem =           8
       mpw =        2052          nfft =       41472          nkpt =           8
================================================================================
P This job should need less than                      16.211 Mbytes of memory.
  Rough estimation (10% accuracy) of disk space for files :
_ WF disk file :      2.507 Mbytes ; DEN or POT disk file :      0.318 Mbytes.
================================================================================


 DATASET    2 : space group P-6 m 2 (#187); Bravais hP (primitive hexag.)
================================================================================
 Values of the parameters that define the memory need for DATASET  2.
     intxc =       0    ionmov =       0      iscf =      -2    lmnmax =       6
     lnmax =       6     mgfft =      72  mpssoang =       3    mqgrid =    3548
     natom =       3  nloc_mem =       1    nspden =       1   nspinor =       1
    nsppol =       1      nsym =      12    n1xccc =    2501    ntypat =       2
    occopt =       1   xclevel =       1
-    mband =           8        mffmem =           1         mkmem =          48
       mpw =        2041          nfft =       41472          nkpt =          48
================================================================================
P This job should need less than                      21.584 Mbytes of memory.
  Rough estimation (10% accuracy) of disk space for files :
_ WF disk file :     11.961 Mbytes ; DEN or POT disk file :      0.318 Mbytes.
================================================================================

--------------------------------------------------------------------------------
------------- Echo of variables that govern the present computation ------------
--------------------------------------------------------------------------------
-
- outvars: echo of selected default values                                      
-   iomode0 =  0 , fftalg0 =112 , wfoptalg0 =  0
-
- outvars: echo of global parameters not present in the input file              
-  max_nthreads =    0
-
 -outvars: echo values of preprocessed input variables --------
            acell      6.0204074108E+00  6.0204074108E+00  1.9112404479E+01 Bohr
              amu      9.59400000E+01  3.20660000E+01
           diemac      1.20000000E+01
             ecut      1.70000000E+01 Hartree
           enunit1          0
           enunit2          1
-          fftalg         112
           getden1          0
           getden2         -1
             iscf1          7
             iscf2         -2
           istwfk2       2    0    0    0    0    0    0    0    0    0
                         0    0    0    0    0    0    0    3    0    0
                         0    0    0    0    0    0    0    0    0    0
                         0    0    0    0    0    0    0    0    0    0
                         0    0    0    0    0    0    0    2
           jdtset        1    2
              kpt1     0.00000000E+00  0.00000000E+00  1.25000000E-01
                       2.50000000E-01  0.00000000E+00  1.25000000E-01
                       5.00000000E-01  0.00000000E+00  1.25000000E-01
                       2.50000000E-01  2.50000000E-01  1.25000000E-01
                       0.00000000E+00  0.00000000E+00  3.75000000E-01
                       2.50000000E-01  0.00000000E+00  3.75000000E-01
                       5.00000000E-01  0.00000000E+00  3.75000000E-01
                       2.50000000E-01  2.50000000E-01  3.75000000E-01
              kpt2     0.00000000E+00  0.00000000E+00  0.00000000E+00
                       2.94117647E-02  0.00000000E+00  0.00000000E+00
                       5.88235294E-02  0.00000000E+00  0.00000000E+00
                       8.82352941E-02  0.00000000E+00  0.00000000E+00
                       1.17647059E-01  0.00000000E+00  0.00000000E+00
                       1.47058824E-01  0.00000000E+00  0.00000000E+00
                       1.76470588E-01  0.00000000E+00  0.00000000E+00
                       2.05882353E-01  0.00000000E+00  0.00000000E+00
                       2.35294118E-01  0.00000000E+00  0.00000000E+00
                       2.64705882E-01  0.00000000E+00  0.00000000E+00
                       2.94117647E-01  0.00000000E+00  0.00000000E+00
                       3.23529412E-01  0.00000000E+00  0.00000000E+00
                       3.52941176E-01  0.00000000E+00  0.00000000E+00
                       3.82352941E-01  0.00000000E+00  0.00000000E+00
                       4.11764706E-01  0.00000000E+00  0.00000000E+00
                       4.41176471E-01  0.00000000E+00  0.00000000E+00
                       4.70588235E-01  0.00000000E+00  0.00000000E+00
                       5.00000000E-01  0.00000000E+00  0.00000000E+00
                       4.83333333E-01  3.33333333E-02  0.00000000E+00
                       4.66666667E-01  6.66666667E-02  0.00000000E+00
                       4.50000000E-01  1.00000000E-01  0.00000000E+00
                       4.33333333E-01  1.33333333E-01  0.00000000E+00
                       4.16666667E-01  1.66666667E-01  0.00000000E+00
                       4.00000000E-01  2.00000000E-01  0.00000000E+00
                       3.83333333E-01  2.33333333E-01  0.00000000E+00
                       3.66666667E-01  2.66666667E-01  0.00000000E+00
                       3.50000000E-01  3.00000000E-01  0.00000000E+00
                       3.33333333E-01  3.33333333E-01  0.00000000E+00
                       3.16666667E-01  3.16666667E-01  0.00000000E+00
                       3.00000000E-01  3.00000000E-01  0.00000000E+00
                       2.83333333E-01  2.83333333E-01  0.00000000E+00
                       2.66666667E-01  2.66666667E-01  0.00000000E+00
                       2.50000000E-01  2.50000000E-01  0.00000000E+00
                       2.33333333E-01  2.33333333E-01  0.00000000E+00
                       2.16666667E-01  2.16666667E-01  0.00000000E+00
                       2.00000000E-01  2.00000000E-01  0.00000000E+00
                       1.83333333E-01  1.83333333E-01  0.00000000E+00
                       1.66666667E-01  1.66666667E-01  0.00000000E+00
                       1.50000000E-01  1.50000000E-01  0.00000000E+00
                       1.33333333E-01  1.33333333E-01  0.00000000E+00
                       1.16666667E-01  1.16666667E-01  0.00000000E+00
                       1.00000000E-01  1.00000000E-01  0.00000000E+00
                       8.33333333E-02  8.33333333E-02  0.00000000E+00
                       6.66666667E-02  6.66666667E-02  0.00000000E+00
                       5.00000000E-02  5.00000000E-02  0.00000000E+00
                       3.33333333E-02  3.33333333E-02  0.00000000E+00
                       1.66666667E-02  1.66666667E-02  0.00000000E+00
                       0.00000000E+00  0.00000000E+00  0.00000000E+00
           kptopt1          1
           kptopt2         -3
         kptrlatt        4    0    0      0    4    0      0    0    4
          kptrlen1     2.40816296E+01
          kptrlen2     3.00000000E+01
P           mkmem1          8
P           mkmem2         48
            natom           3
            nband1         10
            nband2          8
           nbdbuf1          0
           nbdbuf2          2
           ndtset           2
            ngfft          24      24      72
             nkpt1          8
             nkpt2         48
            nstep          10
             nsym          12
           ntypat           2
              occ      2.000000  2.000000  2.000000  2.000000  2.000000  2.000000
                       2.000000  2.000000  2.000000  0.000000
            rprim      1.0000000000E+00  0.0000000000E+00  0.0000000000E+00
                      -5.0000000000E-01  8.6602540378E-01  0.0000000000E+00
                       0.0000000000E+00  0.0000000000E+00  1.0000000000E+00
           shiftk1     0.00000000E+00  0.00000000E+00  5.00000000E-01
           shiftk2     5.00000000E-01  5.00000000E-01  5.00000000E-01
          spgroup         187
           symrel      1  0  0   0  1  0   0  0  1       0 -1  0  -1  0  0   0  0 -1
                      -1 -1  0   1  0  0   0  0 -1      -1  0  0   1  1  0   0  0  1
                       0  1  0  -1 -1  0   0  0  1       1  1  0   0 -1  0   0  0 -1
                       1  0  0   0  1  0   0  0 -1       0 -1  0  -1  0  0   0  0  1
                      -1 -1  0   1  0  0   0  0  1      -1  0  0   1  1  0   0  0 -1
                       0  1  0  -1 -1  0   0  0 -1       1  1  0   0 -1  0   0  0  1
           toldfe1     1.00000000E-06 Hartree
           toldfe2     0.00000000E+00 Hartree
           tolwfr1     0.00000000E+00
           tolwfr2     1.00000000E-12
            typat      1  2  2
              wtk1       0.03125    0.18750    0.09375    0.18750    0.03125    0.18750
                         0.09375    0.18750
              wtk2       1.00000    1.00000    1.00000    1.00000    1.00000    1.00000
                         1.00000    1.00000    1.00000    1.00000    1.00000    1.00000
                         1.00000    1.00000    1.00000    1.00000    1.00000    1.00000
                         1.00000    1.00000    1.00000    1.00000    1.00000    1.00000
                         1.00000    1.00000    1.00000    1.00000    1.00000    1.00000
                         1.00000    1.00000    1.00000    1.00000    1.00000    1.00000
                         1.00000    1.00000    1.00000    1.00000    1.00000    1.00000
                         1.00000    1.00000    1.00000    1.00000    1.00000    1.00000
           xangst      0.0000000000E+00  0.0000000000E+00  0.0000000000E+00
                       1.5929311941E+00  9.1967925372E-01  1.6484034495E+00
                       1.5929311941E+00  9.1967925372E-01 -1.6484034495E+00
            xcart      0.0000000000E+00  0.0000000000E+00  0.0000000000E+00
                       3.0102037054E+00  1.7379419196E+00  3.1150310760E+00
                       3.0102037054E+00  1.7379419196E+00 -3.1150310760E+00
             xred      0.0000000000E+00  0.0000000000E+00  0.0000000000E+00
                       6.6666666667E-01  3.3333333333E-01  1.6298478192E-01
                       6.6666666667E-01  3.3333333333E-01 -1.6298478192E-01
            znucl       42.00000   16.00000

================================================================================

 chkinp: Checking input parameters for consistency, jdtset=   1.

 chkinp: Checking input parameters for consistency, jdtset=   2.

================================================================================
== DATASET  1 ==================================================================
-   nproc =    1

 Exchange-correlation functional for the present dataset will be:
  LDA: new Teter (4/93) with spin-polarized option - ixc=1
 Citation for XC functional:
  S. Goedecker, M. Teter, J. Huetter, PRB 54, 1703 (1996)

 Real(R)+Recip(G) space primitive vectors, cartesian coordinates (Bohr,Bohr^-1):
 R(1)=  6.0204074  0.0000000  0.0000000  G(1)=  0.1661017  0.0958989  0.0000000
 R(2)= -3.0102037  5.2138258  0.0000000  G(2)=  0.0000000  0.1917977  0.0000000
 R(3)=  0.0000000  0.0000000 19.1124045  G(3)=  0.0000000  0.0000000  0.0523220
 Unit cell volume ucvol=  5.9992605E+02 bohr^3
 Angles (23,13,12)=  9.00000000E+01  9.00000000E+01  1.20000000E+02 degrees

 getcut: wavevector=  0.0000  0.0000  0.0000  ngfft=  24  24  72
         ecut(hartree)=     17.000   => boxcut(ratio)=   2.02968

--- Pseudopotential description ------------------------------------------------
- pspini: atom type   1  psp file is ./42mo.pspnc
- pspatm: opening atomic psp file    ./42mo.pspnc
-  Troullier-Martins psp for element  Mo        Thu Oct 27 17:40:28 EDT 1994
- 42.00000   6.00000    940714                znucl, zion, pspdat
    1    1    2    0      2001   0.00000      pspcod,pspxc,lmax,lloc,mmax,r2well
    0   4.276   7.035    0   2.8930462        l,e99.0,e99.9,nproj,rcpsp
   0.00000000   0.00000000   0.00000000   0.00000000     rms, ekb1, ekb2, epsatm
    1   1.499   2.758    1   3.1973167        l,e99.0,e99.9,nproj,rcpsp
   0.00000000   0.00000000   0.00000000   0.00000000     rms, ekb1, ekb2, epsatm
    2  11.774  15.725    1   2.1974630        l,e99.0,e99.9,nproj,rcpsp
   0.00000000   0.00000000   0.00000000   0.00000000     rms, ekb1, ekb2, epsatm
    2.63204696240783    0.28531456933550    4.53995799271176   rchrg,fchrg,qchrg
 pspatm: epsatm=   89.23647829
         --- l  ekb(1:nproj) -->
             1    0.432305
             2   -4.457359
 pspatm: atomic psp has been read  and splines computed

- pspini: atom type   2  psp file is ./S.psp8
- pspatm: opening atomic psp file    ./S.psp8
- S     ONCVPSP  r_core=  1.45  1.45  1.62
- 16.00000   6.00000    151027                znucl, zion, pspdat
    8   11    2    4       600   0.00000      pspcod,pspxc,lmax,lloc,mmax,r2well
    5.99000000000000    6.00000000000000    0.00000000000000   rchrg,fchrg,qchrg
     nproj     2     2     2
extension_switch     1
 pspatm: epsatm=    9.01629391
         --- l  ekb(1:nproj) -->
             0    6.687458    0.573856
             1    3.355342    0.912754
             2   -8.510942   -1.367258
 pspatm: atomic psp has been read  and splines computed

   1.93084319E+03                                ecore*ucvol(ha*bohr**3)
--------------------------------------------------------------------------------

_setup2: Arith. and geom. avg. npw (full set) are    2009.969    2009.937

================================================================================

     iter   Etot(hartree)      deltaE(h)  residm     vres2
 ETOT  1  -31.408923071630    -3.141E+01 6.168E-02 4.015E+03
 ETOT  2  -30.905312594254     5.036E-01 3.882E-03 7.204E+03
 ETOT  3  -32.157654729421    -1.252E+00 1.355E-02 2.134E+01
 ETOT  4  -32.165214728382    -7.560E-03 5.923E-03 1.393E+01
 ETOT  5  -32.164989710529     2.250E-04 2.588E-03 9.351E+00
 ETOT  6  -32.166146534812    -1.157E-03 1.221E-03 2.893E-01
 ETOT  7  -32.166161818259    -1.528E-05 7.409E-04 2.320E-01
 ETOT  8  -32.166207439600    -4.562E-05 4.615E-04 7.311E-02
 ETOT  9  -32.166209075263    -1.636E-06 3.899E-04 2.558E-02
 ETOT 10  -32.166212385357    -3.310E-06 3.424E-04 2.075E-04

 Cartesian components of stress tensor (hartree/bohr^3)
  sigma(1 1)=  7.11740248E-05  sigma(3 2)=  0.00000000E+00
  sigma(2 2)=  7.11740249E-05  sigma(3 1)=  0.00000000E+00
  sigma(3 3)=  1.81373841E-04  sigma(2 1)=  0.00000000E+00


 scprqt:  WARNING -
  nstep=   10 was not enough SCF cycles to converge;
  maximum energy difference=  3.310E-06 exceeds toldfe=  1.000E-06

 Integrated electronic density in atomic spheres:
 ------------------------------------------------
 Atom  Sphere_radius  Integrated_density
    1        2.00000          2.91239893
    2        2.00000          3.82009880
    3        2.00000          3.82009880
================================================================================

 ----iterations are completed or convergence reached----

 Mean square residual over all n,k,spin=   8.0315E-06; max=  3.4240E-04
 reduced coordinates (array xred) for    3 atoms
       0.000000000000      0.000000000000      0.000000000000
       0.666666666667      0.333333333333      0.162984781920
       0.666666666667      0.333333333333     -0.162984781920
 rms dE/dt=  1.0313E-01; max dE/dt=  2.1878E-01; dE/dt below (all hartree)
    1       0.000000000000      0.000000000000      0.000000000000
    2       0.000000000000      0.000000000000      0.218777851399
    3       0.000000000000      0.000000000000     -0.218777851399

 cartesian coordinates (angstrom) at end:
    1      0.00000000000000     0.00000000000000     0.00000000000000
    2      1.59293119411085     0.91967925371574     1.64840344945643
    3      1.59293119411085     0.91967925371574    -1.64840344945643

 cartesian forces (hartree/bohr) at end:
    1      0.00000000000000     0.00000000000000    -0.00000000000000
    2     -0.00000000000000    -0.00000000000000    -0.01144690358764
    3     -0.00000000000000    -0.00000000000000     0.01144690358764
 frms,max,avg= 5.3961221E-03 1.1446904E-02   0.000E+00  0.000E+00  0.000E+00 h/b

 cartesian forces (eV/Angstrom) at end:
    1      0.00000000000000     0.00000000000000    -0.00000000000000
    2     -0.00000000000000    -0.00000000000000    -0.58862339963900
    3     -0.00000000000000    -0.00000000000000     0.58862339963900
 frms,max,avg= 2.7747973E-01 5.8862340E-01   0.000E+00  0.000E+00  0.000E+00 e/A
 length scales=  6.020407410800  6.020407410800 19.112404479000 bohr
              =  3.185862388222  3.185862388222 10.113848851640 angstroms
 prteigrs : about to open file mos2_5o_DS1_EIG
 Fermi (or HOMO) energy (hartree) =  -0.09702   Average Vxc (hartree)=  -0.28291
 Eigenvalues (hartree) for nkpt=   8  k points:
 kpt#   1, nband= 10, wtk=  0.03125, kpt=  0.0000  0.0000  0.1250 (reduced coord)
  -0.59489   -0.55822   -0.28302   -0.16486   -0.16486   -0.15541   -0.12584   -0.12584
  -0.09769    0.01829
 prteigrs : prtvol=0 or 1, do not print more k-points.


--------------------------------------------------------------------------------
 Components of total free energy (in Hartree) :

    Kinetic energy  =  1.55858267353005E+01
    Hartree energy  =  2.59392264297292E+01
    XC energy       = -1.08203036493089E+01
    Ewald energy    = -3.10482230944750E+00
    PspCore energy  =  3.21846864015186E+00
    Loc. psp. energy= -5.71863617639981E+01
    NL   psp  energy= -5.79824646778408E+00
    >>>>>>>>> Etotal= -3.21662123853570E+01

 Other information on the energy :
    Total energy(eV)= -8.75287152540236E+02 ; Band energy (Ha)=  -4.7415114872E+00
--------------------------------------------------------------------------------

 Cartesian components of stress tensor (hartree/bohr^3)
  sigma(1 1)=  7.11740248E-05  sigma(3 2)=  0.00000000E+00
  sigma(2 2)=  7.11740249E-05  sigma(3 1)=  0.00000000E+00
  sigma(3 3)=  1.81373841E-04  sigma(2 1)=  0.00000000E+00

-Cartesian components of stress tensor (GPa)         [Pressure= -3.1747E+00 GPa]
- sigma(1 1)=  2.09401175E+00  sigma(3 2)=  0.00000000E+00
- sigma(2 2)=  2.09401176E+00  sigma(3 1)=  0.00000000E+00
- sigma(3 3)=  5.33620174E+00  sigma(2 1)=  0.00000000E+00

================================================================================
== DATASET  2 ==================================================================
-   nproc =    1

 mkfilename : getden/=0, take file _DEN from output of DATASET   1.

 Exchange-correlation functional for the present dataset will be:
  LDA: new Teter (4/93) with spin-polarized option - ixc=1
 Citation for XC functional:
  S. Goedecker, M. Teter, J. Huetter, PRB 54, 1703 (1996)

 Real(R)+Recip(G) space primitive vectors, cartesian coordinates (Bohr,Bohr^-1):
 R(1)=  6.0204074  0.0000000  0.0000000  G(1)=  0.1661017  0.0958989  0.0000000
 R(2)= -3.0102037  5.2138258  0.0000000  G(2)=  0.0000000  0.1917977  0.0000000
 R(3)=  0.0000000  0.0000000 19.1124045  G(3)=  0.0000000  0.0000000  0.0523220
 Unit cell volume ucvol=  5.9992605E+02 bohr^3
 Angles (23,13,12)=  9.00000000E+01  9.00000000E+01  1.20000000E+02 degrees

 getcut: wavevector=  0.0000  0.0000  0.0000  ngfft=  24  24  72
         ecut(hartree)=     17.000   => boxcut(ratio)=   2.02968
--------------------------------------------------------------------------------


================================================================================
 prteigrs : about to open file mos2_5o_DS2_EIG
 Non-SCF case, kpt    1 (  0.00000  0.00000  0.00000), residuals and eigenvalues=
  8.13E-13  3.58E-13  2.05E-11  1.73E-12  6.52E-07  3.37E-08  5.29E-11  6.88E-06
 -5.9486E-01 -5.5818E-01 -2.8307E-01 -1.6494E-01 -1.6494E-01 -1.5525E-01
 -1.2586E-01 -1.2580E-01
  prteigrs : nnsclo,ikpt=   10    1 max resid (incl. the buffer)=  6.88409E-06
 Non-SCF case, kpt    2 (  0.02941  0.00000  0.00000), residuals and eigenvalues=
  7.92E-13  4.04E-13  2.20E-11  1.08E-07  2.23E-07  4.61E-08  2.34E-05  1.90E-06
 -5.9441E-01 -5.5792E-01 -2.8250E-01 -1.6608E-01 -1.6445E-01 -1.5682E-01
 -1.2658E-01 -1.2507E-01
  prteigrs : nnsclo,ikpt=   10    2 max resid (incl. the buffer)=  2.33657E-05
 Non-SCF case, kpt    3 (  0.05882  0.00000  0.00000), residuals and eigenvalues=
  6.74E-13  8.67E-13  6.43E-11  2.76E-07  5.00E-08  1.65E-08  7.37E-05  6.01E-05
 -5.9306E-01 -5.5715E-01 -2.8079E-01 -1.6943E-01 -1.6301E-01 -1.6095E-01
 -1.2863E-01 -1.2304E-01
  prteigrs : nnsclo,ikpt=   10    3 max resid (incl. the buffer)=  7.36823E-05
 Non-SCF case, kpt    4 (  0.08824  0.00000  0.00000), residuals and eigenvalues=
  5.10E-13  8.38E-13  3.95E-11  1.70E-07  1.55E-07  1.52E-06  8.43E-06  9.74E-07
 -5.9083E-01 -5.5586E-01 -2.7804E-01 -1.7461E-01 -1.6666E-01 -1.6060E-01
 -1.3262E-01 -1.2178E-01
  prteigrs : nnsclo,ikpt=   10    4 max resid (incl. the buffer)=  8.43310E-06
 Non-SCF case, kpt    5 (  0.11765  0.00000  0.00000), residuals and eigenvalues=
  3.32E-13  7.04E-13  7.13E-11  3.62E-08  2.89E-08  6.96E-07  1.56E-07  3.59E-06
 -5.8775E-01 -5.5408E-01 -2.7436E-01 -1.8132E-01 -1.7328E-01 -1.5725E-01
 -1.3723E-01 -1.2133E-01
  prteigrs : nnsclo,ikpt=   10    5 max resid (incl. the buffer)=  3.59408E-06
 Non-SCF case, kpt    6 (  0.14706  0.00000  0.00000), residuals and eigenvalues=
  3.86E-13  7.92E-13  1.02E-10  2.53E-08  9.07E-09  1.87E-06  2.38E-07  2.27E-06
 -5.8388E-01 -5.5186E-01 -2.6997E-01 -1.8907E-01 -1.8054E-01 -1.5317E-01
 -1.4247E-01 -1.2257E-01
  prteigrs : nnsclo,ikpt=   10    6 max resid (incl. the buffer)=  2.26650E-06
 Non-SCF case, kpt    7 (  0.17647  0.00000  0.00000), residuals and eigenvalues=
  4.79E-13  5.33E-13  5.68E-11  1.48E-09  9.85E-08  1.75E-07  3.10E-06  5.92E-06
 -5.7929E-01 -5.4924E-01 -2.6521E-01 -1.9739E-01 -1.8828E-01 -1.4844E-01
 -1.4806E-01 -1.2540E-01
  prteigrs : nnsclo,ikpt=   10    7 max resid (incl. the buffer)=  5.91746E-06
 Non-SCF case, kpt    8 (  0.20588  0.00000  0.00000), residuals and eigenvalues=
  9.11E-13  6.60E-13  6.07E-11  1.82E-09  4.33E-09  1.93E-06  3.66E-06  7.33E-05
 -5.7407E-01 -5.4627E-01 -2.6063E-01 -2.0563E-01 -1.9643E-01 -1.5379E-01
 -1.4321E-01 -1.2925E-01
  prteigrs : nnsclo,ikpt=   10    8 max resid (incl. the buffer)=  7.33215E-05
 Non-SCF case, kpt    9 (  0.23529  0.00000  0.00000), residuals and eigenvalues=
  4.42E-13  9.48E-13  2.02E-10  7.35E-09  1.21E-08  2.03E-06  2.00E-06  7.68E-06
 -5.6833E-01 -5.4302E-01 -2.5714E-01 -2.1304E-01 -2.0492E-01 -1.5943E-01
 -1.3776E-01 -1.3432E-01
  prteigrs : nnsclo,ikpt=   10    9 max resid (incl. the buffer)=  7.68070E-06
 Non-SCF case, kpt   10 (  0.26471  0.00000  0.00000), residuals and eigenvalues=
  4.12E-13  6.57E-13  2.91E-11  3.41E-09  1.04E-08  2.98E-06  1.33E-06  7.88E-06
 -5.6221E-01 -5.3957E-01 -2.5597E-01 -2.1854E-01 -2.1361E-01 -1.6480E-01
 -1.3928E-01 -1.3221E-01
  prteigrs : nnsclo,ikpt=   10   10 max resid (incl. the buffer)=  7.87584E-06
 Non-SCF case, kpt   11 (  0.29412  0.00000  0.00000), residuals and eigenvalues=
  5.72E-13  4.59E-13  6.56E-11  7.38E-10  2.91E-09  1.84E-06  1.15E-05  2.05E-05
 -5.5588E-01 -5.3604E-01 -2.5816E-01 -2.2231E-01 -2.2146E-01 -1.6976E-01
 -1.4387E-01 -1.2631E-01
  prteigrs : nnsclo,ikpt=   10   11 max resid (incl. the buffer)=  2.04728E-05
 Non-SCF case, kpt   12 (  0.32353  0.00000  0.00000), residuals and eigenvalues=
  3.59E-13  5.02E-13  2.01E-11  1.76E-10  2.53E-09  3.88E-07  1.72E-06  7.04E-09
 -5.4953E-01 -5.3254E-01 -2.6317E-01 -2.3074E-01 -2.2246E-01 -1.7423E-01
 -1.4797E-01 -1.2207E-01
  prteigrs : nnsclo,ikpt=   10   12 max resid (incl. the buffer)=  1.72167E-06
 Non-SCF case, kpt   13 (  0.35294  0.00000  0.00000), residuals and eigenvalues=
  8.98E-13  5.48E-13  1.96E-11  2.50E-10  1.21E-09  1.99E-07  1.79E-07  2.57E-05
 -5.4342E-01 -5.2919E-01 -2.6955E-01 -2.3863E-01 -2.2294E-01 -1.7813E-01
 -1.5137E-01 -1.1925E-01
  prteigrs : nnsclo,ikpt=   10   13 max resid (incl. the buffer)=  2.57292E-05
 Non-SCF case, kpt   14 (  0.38235  0.00000  0.00000), residuals and eigenvalues=
  2.86E-13  5.96E-13  7.16E-12  1.94E-10  1.94E-09  1.07E-07  2.30E-07  3.39E-05
 -5.3780E-01 -5.2616E-01 -2.7607E-01 -2.4562E-01 -2.2366E-01 -1.8140E-01
 -1.5408E-01 -1.1779E-01
  prteigrs : nnsclo,ikpt=   10   14 max resid (incl. the buffer)=  3.38967E-05
 Non-SCF case, kpt   15 (  0.41176  0.00000  0.00000), residuals and eigenvalues=
  4.01E-13  2.57E-13  6.26E-12  1.78E-10  8.62E-10  5.91E-08  7.15E-07  3.52E-05
 -5.3297E-01 -5.2360E-01 -2.8189E-01 -2.5142E-01 -2.2466E-01 -1.8399E-01
 -1.5611E-01 -1.1405E-01
  prteigrs : nnsclo,ikpt=   10   15 max resid (incl. the buffer)=  3.51633E-05
 Non-SCF case, kpt   16 (  0.44118  0.00000  0.00000), residuals and eigenvalues=
  5.67E-13  7.92E-13  4.04E-11  8.59E-12  4.98E-11  9.87E-09  1.78E-07  2.23E-05
 -5.2925E-01 -5.2166E-01 -2.8648E-01 -2.5579E-01 -2.2571E-01 -1.8586E-01
 -1.5755E-01 -1.1141E-01
  prteigrs : nnsclo,ikpt=   10   16 max resid (incl. the buffer)=  2.22594E-05
 Non-SCF case, kpt   17 (  0.47059  0.00000  0.00000), residuals and eigenvalues=
  6.45E-13  6.62E-13  2.20E-11  1.42E-11  4.15E-11  6.11E-09  3.70E-07  3.50E-06
 -5.2690E-01 -5.2045E-01 -2.8940E-01 -2.5849E-01 -2.2647E-01 -1.8704E-01
 -1.5839E-01 -1.0924E-01
  prteigrs : nnsclo,ikpt=   10   17 max resid (incl. the buffer)=  3.50429E-06
 Non-SCF case, kpt   18 (  0.50000  0.00000  0.00000), residuals and eigenvalues=
  7.01E-13  6.09E-13  7.68E-12  1.19E-12  8.94E-11  1.05E-08  1.08E-07  9.37E-07
 -5.2609E-01 -5.2004E-01 -2.9040E-01 -2.5941E-01 -2.2673E-01 -1.8745E-01
 -1.5867E-01 -1.0862E-01
  prteigrs : nnsclo,ikpt=   10   18 max resid (incl. the buffer)=  9.37271E-07
 Non-SCF case, kpt   19 (  0.48333  0.03333  0.00000), residuals and eigenvalues=
  2.77E-13  7.59E-13  3.20E-11  2.09E-11  7.88E-11  9.32E-09  7.98E-08  5.55E-05
 -5.2589E-01 -5.1988E-01 -2.8982E-01 -2.5956E-01 -2.2650E-01 -1.8803E-01
 -1.5847E-01 -1.1636E-01
  prteigrs : nnsclo,ikpt=   10   19 max resid (incl. the buffer)=  5.54635E-05
 Non-SCF case, kpt   20 (  0.46667  0.06667  0.00000), residuals and eigenvalues=
  9.81E-13  7.54E-13  6.25E-11  1.15E-10  1.50E-10  9.26E-09  1.28E-07  8.74E-06
 -5.2531E-01 -5.1944E-01 -2.8809E-01 -2.6003E-01 -2.2580E-01 -1.8964E-01
 -1.5803E-01 -1.2691E-01
  prteigrs : nnsclo,ikpt=   10   20 max resid (incl. the buffer)=  8.74152E-06
 Non-SCF case, kpt   21 (  0.45000  0.10000  0.00000), residuals and eigenvalues=
  2.60E-13  1.96E-13  1.71E-11  6.72E-12  7.22E-11  4.55E-09  2.12E-08  5.52E-07
 -5.2438E-01 -5.1874E-01 -2.8524E-01 -2.6087E-01 -2.2474E-01 -1.9172E-01
 -1.5772E-01 -1.3885E-01
  prteigrs : nnsclo,ikpt=   10   21 max resid (incl. the buffer)=  5.52067E-07
 Non-SCF case, kpt   22 (  0.43333  0.13333  0.00000), residuals and eigenvalues=
  2.88E-13  8.32E-13  5.17E-11  1.76E-11  1.64E-10  2.02E-09  2.10E-08  1.49E-07
 -5.2316E-01 -5.1783E-01 -2.8133E-01 -2.6216E-01 -2.2342E-01 -1.9367E-01
 -1.5785E-01 -1.5205E-01
  prteigrs : nnsclo,ikpt=   10   22 max resid (incl. the buffer)=  1.48708E-07
 Non-SCF case, kpt   23 (  0.41667  0.16667  0.00000), residuals and eigenvalues=
  2.94E-13  7.15E-13  1.85E-11  6.64E-12  1.07E-10  3.40E-10  4.47E-08  3.76E-08
 -5.2176E-01 -5.1681E-01 -2.7646E-01 -2.6389E-01 -2.2205E-01 -1.9504E-01
 -1.6590E-01 -1.5863E-01
  prteigrs : nnsclo,ikpt=   10   23 max resid (incl. the buffer)=  4.47495E-08
 Non-SCF case, kpt   24 (  0.40000  0.20000  0.00000), residuals and eigenvalues=
  3.69E-13  8.63E-13  8.46E-11  2.28E-11  3.19E-11  1.91E-09  8.61E-09  4.50E-08
 -5.2026E-01 -5.1572E-01 -2.7075E-01 -2.6596E-01 -2.2084E-01 -1.9551E-01
 -1.7965E-01 -1.6009E-01
  prteigrs : nnsclo,ikpt=   10   24 max resid (incl. the buffer)=  4.50428E-08
 Non-SCF case, kpt   25 (  0.38333  0.23333  0.00000), residuals and eigenvalues=
  2.85E-13  8.36E-13  7.98E-12  7.42E-11  1.58E-10  3.61E-09  6.65E-11  8.05E-08
 -5.1880E-01 -5.1466E-01 -2.6811E-01 -2.6434E-01 -2.2027E-01 -1.9506E-01
 -1.9234E-01 -1.6213E-01
  prteigrs : nnsclo,ikpt=   10   25 max resid (incl. the buffer)=  8.04608E-08
 Non-SCF case, kpt   26 (  0.36667  0.26667  0.00000), residuals and eigenvalues=
  6.25E-13  3.46E-13  1.19E-12  1.36E-11  4.75E-10  2.87E-10  1.84E-09  2.09E-08
 -5.1754E-01 -5.1377E-01 -2.7008E-01 -2.5759E-01 -2.2144E-01 -2.0230E-01
 -1.9398E-01 -1.6446E-01
  prteigrs : nnsclo,ikpt=   10   26 max resid (incl. the buffer)=  2.08554E-08
 Non-SCF case, kpt   27 (  0.35000  0.30000  0.00000), residuals and eigenvalues=
  8.42E-13  7.47E-13  4.54E-12  1.25E-11  2.23E-10  7.24E-10  1.11E-09  3.58E-08
 -5.1666E-01 -5.1317E-01 -2.7149E-01 -2.5129E-01 -2.2558E-01 -2.0727E-01
 -1.9275E-01 -1.6650E-01
  prteigrs : nnsclo,ikpt=   10   27 max resid (incl. the buffer)=  3.58273E-08
 Non-SCF case, kpt   28 (  0.33333  0.33333  0.00000), residuals and eigenvalues=
  7.09E-13  5.06E-13  6.55E-12  4.65E-12  1.04E-10  7.52E-11  2.95E-09  1.93E-08
 -5.1634E-01 -5.1296E-01 -2.7205E-01 -2.4814E-01 -2.2866E-01 -2.0831E-01
 -1.9217E-01 -1.6740E-01
  prteigrs : nnsclo,ikpt=   10   28 max resid (incl. the buffer)=  1.93373E-08
 Non-SCF case, kpt   29 (  0.31667  0.31667  0.00000), residuals and eigenvalues=
  4.66E-13  5.13E-13  2.31E-12  3.06E-11  1.26E-10  1.22E-10  6.44E-11  2.21E-08
 -5.1672E-01 -5.1320E-01 -2.7142E-01 -2.5105E-01 -2.2532E-01 -2.0772E-01
 -1.9287E-01 -1.6634E-01
  prteigrs : nnsclo,ikpt=   10   29 max resid (incl. the buffer)=  2.20817E-08
 Non-SCF case, kpt   30 (  0.30000  0.30000  0.00000), residuals and eigenvalues=
  6.20E-13  3.37E-13  1.14E-11  1.96E-11  4.04E-10  9.43E-11  2.96E-09  1.04E-08
 -5.1796E-01 -5.1400E-01 -2.6948E-01 -2.5613E-01 -2.1891E-01 -2.0599E-01
 -1.9480E-01 -1.6339E-01
  prteigrs : nnsclo,ikpt=   10   30 max resid (incl. the buffer)=  1.04464E-08
 Non-SCF case, kpt   31 (  0.28333  0.28333  0.00000), residuals and eigenvalues=
  6.30E-13  8.35E-13  2.95E-11  3.18E-11  1.07E-09  6.41E-10  8.58E-10  6.08E-09
 -5.2018E-01 -5.1535E-01 -2.6610E-01 -2.6042E-01 -2.1365E-01 -2.0193E-01
 -1.9729E-01 -1.5910E-01
  prteigrs : nnsclo,ikpt=   10   31 max resid (incl. the buffer)=  6.07721E-09
 Non-SCF case, kpt   32 (  0.26667  0.26667  0.00000), residuals and eigenvalues=
  9.66E-13  9.51E-13  2.32E-11  1.11E-11  1.69E-09  7.25E-10  5.03E-10  2.12E-07
 -5.2338E-01 -5.1727E-01 -2.6309E-01 -2.6124E-01 -2.1139E-01 -1.9973E-01
 -1.9476E-01 -1.5404E-01
  prteigrs : nnsclo,ikpt=   10   32 max resid (incl. the buffer)=  2.12124E-07
 Non-SCF case, kpt   33 (  0.25000  0.25000  0.00000), residuals and eigenvalues=
  5.22E-13  6.58E-13  1.54E-11  4.91E-11  8.60E-10  3.75E-09  5.97E-09  1.11E-07
 -5.2751E-01 -5.1970E-01 -2.6399E-01 -2.5494E-01 -2.1102E-01 -2.0167E-01
 -1.8616E-01 -1.4864E-01
  prteigrs : nnsclo,ikpt=   10   33 max resid (incl. the buffer)=  1.11379E-07
 Non-SCF case, kpt   34 (  0.23333  0.23333  0.00000), residuals and eigenvalues=
  4.95E-13  8.14E-13  1.32E-11  1.20E-11  1.06E-09  3.14E-09  9.05E-09  1.20E-06
 -5.3246E-01 -5.2257E-01 -2.6319E-01 -2.4732E-01 -2.1178E-01 -2.0288E-01
 -1.7726E-01 -1.4319E-01
  prteigrs : nnsclo,ikpt=   10   34 max resid (incl. the buffer)=  1.19722E-06
 Non-SCF case, kpt   35 (  0.21667  0.21667  0.00000), residuals and eigenvalues=
  9.68E-13  4.35E-13  2.46E-12  1.62E-10  1.16E-09  1.28E-09  1.79E-07  1.25E-05
 -5.3807E-01 -5.2578E-01 -2.6098E-01 -2.3856E-01 -2.1343E-01 -2.0308E-01
 -1.6853E-01 -1.3787E-01
  prteigrs : nnsclo,ikpt=   10   35 max resid (incl. the buffer)=  1.24607E-05
 Non-SCF case, kpt   36 (  0.20000  0.20000  0.00000), residuals and eigenvalues=
  5.62E-13  5.42E-13  5.98E-11  9.06E-10  4.73E-09  4.04E-09  2.53E-07  2.12E-05
 -5.4414E-01 -5.2923E-01 -2.5787E-01 -2.2898E-01 -2.1563E-01 -2.0208E-01
 -1.6028E-01 -1.3294E-01
  prteigrs : nnsclo,ikpt=   10   36 max resid (incl. the buffer)=  2.12001E-05
 Non-SCF case, kpt   37 (  0.18333  0.18333  0.00000), residuals and eigenvalues=
  5.46E-13  5.39E-13  2.65E-11  3.92E-09  4.35E-09  3.99E-09  1.81E-06  4.25E-06
 -5.5047E-01 -5.3284E-01 -2.5469E-01 -2.1913E-01 -2.1763E-01 -1.9953E-01
 -1.5289E-01 -1.2862E-01
  prteigrs : nnsclo,ikpt=   10   37 max resid (incl. the buffer)=  4.24549E-06
 Non-SCF case, kpt   38 (  0.16667  0.16667  0.00000), residuals and eigenvalues=
  8.73E-13  8.40E-13  4.57E-11  1.04E-08  1.18E-09  4.98E-09  2.54E-07  2.03E-06
 -5.5687E-01 -5.3647E-01 -2.5275E-01 -2.1813E-01 -2.1005E-01 -1.9462E-01
 -1.4707E-01 -1.2491E-01
  prteigrs : nnsclo,ikpt=   10   38 max resid (incl. the buffer)=  2.03285E-06
 Non-SCF case, kpt   39 (  0.15000  0.15000  0.00000), residuals and eigenvalues=
  8.75E-13  6.50E-13  5.91E-11  1.05E-08  4.21E-09  1.25E-07  4.15E-06  1.17E-05
 -5.6315E-01 -5.4004E-01 -2.5326E-01 -2.1584E-01 -2.0275E-01 -1.8664E-01
 -1.4378E-01 -1.2176E-01
  prteigrs : nnsclo,ikpt=   10   39 max resid (incl. the buffer)=  1.17470E-05
 Non-SCF case, kpt   40 (  0.13333  0.13333  0.00000), residuals and eigenvalues=
  6.66E-13  7.24E-13  5.33E-11  1.72E-09  1.43E-08  1.96E-07  1.48E-05  1.51E-05
 -5.6916E-01 -5.4345E-01 -2.5623E-01 -2.1074E-01 -1.9674E-01 -1.7656E-01
 -1.4373E-01 -1.1942E-01
  prteigrs : nnsclo,ikpt=   10   40 max resid (incl. the buffer)=  1.51014E-05
 Non-SCF case, kpt   41 (  0.11667  0.11667  0.00000), residuals and eigenvalues=
  8.80E-13  4.36E-13  2.00E-11  1.33E-08  5.56E-09  1.50E-06  6.39E-06  1.18E-05
 -5.7475E-01 -5.4664E-01 -2.6062E-01 -2.0379E-01 -1.9093E-01 -1.6591E-01
 -1.4622E-01 -1.1824E-01
  prteigrs : nnsclo,ikpt=   10   41 max resid (incl. the buffer)=  1.17854E-05
 Non-SCF case, kpt   42 (  0.10000  0.10000  0.00000), residuals and eigenvalues=
  6.90E-13  9.80E-13  5.21E-11  4.74E-09  4.43E-08  9.17E-08  1.45E-06  6.18E-06
 -5.7982E-01 -5.4954E-01 -2.6552E-01 -1.9599E-01 -1.8494E-01 -1.5573E-01
 -1.4996E-01 -1.1790E-01
  prteigrs : nnsclo,ikpt=   10   42 max resid (incl. the buffer)=  6.18177E-06
 Non-SCF case, kpt   43 (  0.08333  0.08333  0.00000), residuals and eigenvalues=
  7.08E-13  2.59E-13  4.58E-12  9.06E-09  8.03E-08  7.64E-07  9.11E-07  3.48E-05
 -5.8426E-01 -5.5208E-01 -2.7032E-01 -1.8811E-01 -1.7867E-01 -1.5392E-01
 -1.4661E-01 -1.1793E-01
  prteigrs : nnsclo,ikpt=   10   43 max resid (incl. the buffer)=  3.48033E-05
 Non-SCF case, kpt   44 (  0.06667  0.06667  0.00000), residuals and eigenvalues=
  3.04E-13  8.45E-13  8.38E-11  6.15E-08  4.62E-08  4.40E-07  5.53E-07  6.30E-06
 -5.8800E-01 -5.5423E-01 -2.7464E-01 -1.8071E-01 -1.7232E-01 -1.5764E-01
 -1.3903E-01 -1.1933E-01
  prteigrs : nnsclo,ikpt=   10   44 max resid (incl. the buffer)=  6.30059E-06
 Non-SCF case, kpt   45 (  0.05000  0.05000  0.00000), residuals and eigenvalues=
  3.66E-13  6.06E-13  7.93E-11  3.97E-08  6.43E-08  7.45E-08  4.63E-05  1.20E-06
 -5.9098E-01 -5.5594E-01 -2.7821E-01 -1.7427E-01 -1.6620E-01 -1.6074E-01
 -1.3295E-01 -1.2115E-01
  prteigrs : nnsclo,ikpt=   10   45 max resid (incl. the buffer)=  4.63061E-05
 Non-SCF case, kpt   46 (  0.03333  0.03333  0.00000), residuals and eigenvalues=
  4.00E-13  2.70E-13  3.53E-11  5.59E-09  2.04E-07  2.07E-07  2.88E-07  5.09E-06
 -5.9313E-01 -5.5718E-01 -2.8087E-01 -1.6926E-01 -1.6307E-01 -1.6075E-01
 -1.2905E-01 -1.2321E-01
  prteigrs : nnsclo,ikpt=   10   46 max resid (incl. the buffer)=  5.08685E-06
 Non-SCF case, kpt   47 (  0.01667  0.01667  0.00000), residuals and eigenvalues=
  9.74E-13  4.17E-13  1.66E-11  3.90E-08  2.99E-07  1.55E-07  2.25E-06  1.60E-05
 -5.9443E-01 -5.5793E-01 -2.8252E-01 -1.6604E-01 -1.6446E-01 -1.5676E-01
 -1.2663E-01 -1.2497E-01
  prteigrs : nnsclo,ikpt=   10   47 max resid (incl. the buffer)=  1.59714E-05
 Non-SCF case, kpt   48 (  0.00000  0.00000  0.00000), residuals and eigenvalues=
  8.13E-13  3.58E-13  2.05E-11  1.73E-12  6.52E-07  3.37E-08  5.29E-11  6.88E-06
 -5.9486E-01 -5.5818E-01 -2.8307E-01 -1.6494E-01 -1.6494E-01 -1.5525E-01
 -1.2586E-01 -1.2580E-01
  prteigrs : nnsclo,ikpt=   10   48 max resid (incl. the buffer)=  6.88409E-06


 scprqt:  WARNING -
  nstep=   10 was not enough non-SCF iterations to converge;
  maximum residual=  2.983E-06 exceeds tolwfr=  1.000E-12

 Integrated electronic density in atomic spheres:
 ------------------------------------------------
 Atom  Sphere_radius  Integrated_density
    1        2.00000          2.91239893
    2        2.00000          3.82009880
    3        2.00000          3.82009880
================================================================================

 ----iterations are completed or convergence reached----

 Mean square residual over all n,k,spin=   1.9952E-06; max=  7.3682E-05
 reduced coordinates (array xred) for    3 atoms
       0.000000000000      0.000000000000      0.000000000000
       0.666666666667      0.333333333333      0.162984781920
       0.666666666667      0.333333333333     -0.162984781920

 cartesian coordinates (angstrom) at end:
    1      0.00000000000000     0.00000000000000     0.00000000000000
    2      1.59293119411085     0.91967925371574     1.64840344945643
    3      1.59293119411085     0.91967925371574    -1.64840344945643
 length scales=  6.020407410800  6.020407410800 19.112404479000 bohr
              =  3.185862388222  3.185862388222 10.113848851640 angstroms
 prteigrs : about to open file mos2_5o_DS2_EIG
 Eigenvalues (   eV  ) for nkpt=  48  k points:
 kpt#   1, nband=  8, wtk=  1.00000, kpt=  0.0000  0.0000  0.0000 (reduced coord)
 -16.18703  -15.18875   -7.70274   -4.48830   -4.48827   -4.22456   -3.42480   -3.42329
 kpt#   2, nband=  8, wtk=  1.00000, kpt=  0.0294  0.0000  0.0000 (reduced coord)
 -16.17473  -15.18174   -7.68708   -4.51935   -4.47488   -4.26717   -3.44444   -3.40337
 kpt#   3, nband=  8, wtk=  1.00000, kpt=  0.0588  0.0000  0.0000 (reduced coord)
 -16.13803  -15.16069   -7.64077   -4.61040   -4.43584   -4.37964   -3.50025   -3.34813
 kpt#   4, nband=  8, wtk=  1.00000, kpt=  0.0882  0.0000  0.0000 (reduced coord)
 -16.07733  -15.12572   -7.56584   -4.75150   -4.53516   -4.37012   -3.60867   -3.31392
 kpt#   5, nband=  8, wtk=  1.00000, kpt=  0.1176  0.0000  0.0000 (reduced coord)
 -15.99344  -15.07734   -7.46560   -4.93391   -4.71514   -4.27892   -3.73414   -3.30157
 kpt#   6, nband=  8, wtk=  1.00000, kpt=  0.1471  0.0000  0.0000 (reduced coord)
 -15.88814  -15.01698   -7.34618   -5.14489   -4.91286   -4.16784   -3.87668   -3.33517
 kpt#   7, nband=  8, wtk=  1.00000, kpt=  0.1765  0.0000  0.0000 (reduced coord)
 -15.76328  -14.94550   -7.21674   -5.37130   -5.12327   -4.03937   -4.02894   -3.41240
 kpt#   8, nband=  8, wtk=  1.00000, kpt=  0.2059  0.0000  0.0000 (reduced coord)
 -15.62115  -14.86463   -7.09222   -5.59543   -5.34505   -4.18485   -3.89699   -3.51719
 kpt#   9, nband=  8, wtk=  1.00000, kpt=  0.2353  0.0000  0.0000 (reduced coord)
 -15.46502  -14.77622   -6.99706   -5.79707   -5.57610   -4.33833   -3.74862   -3.65498
 kpt#  10, nband=  8, wtk=  1.00000, kpt=  0.2647  0.0000  0.0000 (reduced coord)
 -15.29852  -14.68250   -6.96541   -5.94688   -5.81267   -4.48439   -3.79009   -3.59773
 kpt#  11, nband=  8, wtk=  1.00000, kpt=  0.2941  0.0000  0.0000 (reduced coord)
 -15.12616  -14.58652   -7.02487   -6.04939   -6.02620   -4.61943   -3.91494   -3.43694
 kpt#  12, nband=  8, wtk=  1.00000, kpt=  0.3235  0.0000  0.0000 (reduced coord)
 -14.95349  -14.49109   -7.16134   -6.27889   -6.05339   -4.74105   -4.02637   -3.32161
 kpt#  13, nband=  8, wtk=  1.00000, kpt=  0.3529  0.0000  0.0000 (reduced coord)
 -14.78716  -14.40011   -7.33496   -6.49332   -6.06649   -4.84727   -4.11909   -3.24498
 kpt#  14, nband=  8, wtk=  1.00000, kpt=  0.3824  0.0000  0.0000 (reduced coord)
 -14.63425  -14.31756   -7.51216   -6.68357   -6.08602   -4.93607   -4.19268   -3.20534
 kpt#  15, nband=  8, wtk=  1.00000, kpt=  0.4118  0.0000  0.0000 (reduced coord)
 -14.50295  -14.24801   -7.67061   -6.84152   -6.11342   -5.00653   -4.24789   -3.10342
 kpt#  16, nband=  8, wtk=  1.00000, kpt=  0.4412  0.0000  0.0000 (reduced coord)
 -14.40174  -14.19518   -7.79550   -6.96047   -6.14201   -5.05764   -4.28708   -3.03155
 kpt#  17, nband=  8, wtk=  1.00000, kpt=  0.4706  0.0000  0.0000 (reduced coord)
 -14.33755  -14.16216   -7.87492   -7.03399   -6.16247   -5.08952   -4.30999   -2.97256
 kpt#  18, nband=  8, wtk=  1.00000, kpt=  0.5000  0.0000  0.0000 (reduced coord)
 -14.31561  -14.15089   -7.90230   -7.05895   -6.16963   -5.10080   -4.31771   -2.95573
 kpt#  19, nband=  8, wtk=  1.00000, kpt=  0.4833  0.0333  0.0000 (reduced coord)
 -14.31031  -14.14666   -7.88635   -7.06287   -6.16341   -5.11657   -4.31216   -3.16645
 kpt#  20, nband=  8, wtk=  1.00000, kpt=  0.4667  0.0667  0.0000 (reduced coord)
 -14.29442  -14.13457   -7.83923   -7.07566   -6.14446   -5.16041   -4.30030   -3.45349
 kpt#  21, nband=  8, wtk=  1.00000, kpt=  0.4500  0.1000  0.0000 (reduced coord)
 -14.26903  -14.11553   -7.76164   -7.09861   -6.11540   -5.21700   -4.29173   -3.77823
 kpt#  22, nband=  8, wtk=  1.00000, kpt=  0.4333  0.1333  0.0000 (reduced coord)
 -14.23594  -14.09093   -7.65532   -7.13367   -6.07963   -5.27011   -4.29527   -4.13758
 kpt#  23, nband=  8, wtk=  1.00000, kpt=  0.4167  0.1667  0.0000 (reduced coord)
 -14.19773  -14.06314   -7.52281   -7.18090   -6.04219   -5.30741   -4.51445   -4.31649
 kpt#  24, nband=  8, wtk=  1.00000, kpt=  0.4000  0.2000  0.0000 (reduced coord)
 -14.15700  -14.03342   -7.36738   -7.23719   -6.00947   -5.32000   -4.88865   -4.35626
 kpt#  25, nband=  8, wtk=  1.00000, kpt=  0.3833  0.2333  0.0000 (reduced coord)
 -14.11722  -14.00464   -7.29574   -7.19317   -5.99393   -5.30795   -5.23392   -4.41173
 kpt#  26, nband=  8, wtk=  1.00000, kpt=  0.3667  0.2667  0.0000 (reduced coord)
 -14.08306  -13.98050   -7.34928   -7.00945   -6.02579   -5.50475   -5.27839   -4.47522
 kpt#  27, nband=  8, wtk=  1.00000, kpt=  0.3500  0.3000  0.0000 (reduced coord)
 -14.05908  -13.96402   -7.38770   -6.83788   -6.13830   -5.64008   -5.24497   -4.53063
 kpt#  28, nband=  8, wtk=  1.00000, kpt=  0.3333  0.3333  0.0000 (reduced coord)
 -14.05026  -13.95842   -7.40280   -6.75221   -6.22225   -5.66836   -5.22909   -4.55508
 kpt#  29, nband=  8, wtk=  1.00000, kpt=  0.3167  0.3167  0.0000 (reduced coord)
 -14.06055  -13.96495   -7.38566   -6.83146   -6.13129   -5.65225   -5.24836   -4.52634
 kpt#  30, nband=  8, wtk=  1.00000, kpt=  0.3000  0.3000  0.0000 (reduced coord)
 -14.09453  -13.98660   -7.33290   -6.96970   -5.95683   -5.60518   -5.30076   -4.44616
 kpt#  31, nband=  8, wtk=  1.00000, kpt=  0.2833  0.2833  0.0000 (reduced coord)
 -14.15477  -14.02329   -7.24097   -7.08626   -5.81379   -5.49473   -5.36845   -4.32923
 kpt#  32, nband=  8, wtk=  1.00000, kpt=  0.2667  0.2667  0.0000 (reduced coord)
 -14.24176  -14.07557   -7.15909   -7.10876   -5.75227   -5.43495   -5.29968   -4.19176
 kpt#  33, nband=  8, wtk=  1.00000, kpt=  0.2500  0.2500  0.0000 (reduced coord)
 -14.35420  -14.14174   -7.18346   -6.93715   -5.74220   -5.48783   -5.06573   -4.04483
 kpt#  34, nband=  8, wtk=  1.00000, kpt=  0.2333  0.2333  0.0000 (reduced coord)
 -14.48909  -14.21980   -7.16168   -6.72995   -5.76292   -5.52061   -4.82350   -3.89649
 kpt#  35, nband=  8, wtk=  1.00000, kpt=  0.2167  0.2167  0.0000 (reduced coord)
 -14.64169  -14.30712   -7.10164   -6.49148   -5.80777   -5.52621   -4.58585   -3.75173
 kpt#  36, nband=  8, wtk=  1.00000, kpt=  0.2000  0.2000  0.0000 (reduced coord)
 -14.80692  -14.40112   -7.01690   -6.23097   -5.86752   -5.49896   -4.36142   -3.61741
 kpt#  37, nband=  8, wtk=  1.00000, kpt=  0.1833  0.1833  0.0000 (reduced coord)
 -14.97912  -14.49920   -6.93038   -5.96296   -5.92203   -5.42940   -4.16036   -3.50001
 kpt#  38, nband=  8, wtk=  1.00000, kpt=  0.1667  0.1667  0.0000 (reduced coord)
 -15.15329  -14.59801   -6.87764   -5.93569   -5.71564   -5.29576   -4.00194   -3.39894
 kpt#  39, nband=  8, wtk=  1.00000, kpt=  0.1500  0.1500  0.0000 (reduced coord)
 -15.32416  -14.69516   -6.89154   -5.87326   -5.51715   -5.07867   -3.91254   -3.31335
 kpt#  40, nband=  8, wtk=  1.00000, kpt=  0.1333  0.1333  0.0000 (reduced coord)
 -15.48767  -14.78815   -6.97240   -5.73442   -5.35347   -4.80435   -3.91110   -3.24953
 kpt#  41, nband=  8, wtk=  1.00000, kpt=  0.1167  0.1167  0.0000 (reduced coord)
 -15.63979  -14.87495   -7.09186   -5.54544   -5.19547   -4.51457   -3.97898   -3.21743
 kpt#  42, nband=  8, wtk=  1.00000, kpt=  0.1000  0.1000  0.0000 (reduced coord)
 -15.77776  -14.95370   -7.22529   -5.33307   -5.03241   -4.23758   -4.08066   -3.20811
 kpt#  43, nband=  8, wtk=  1.00000, kpt=  0.0833  0.0833  0.0000 (reduced coord)
 -15.89854  -15.02289   -7.35586   -5.11867   -4.86172   -4.18825   -3.98953   -3.20914
 kpt#  44, nband=  8, wtk=  1.00000, kpt=  0.0667  0.0667  0.0000 (reduced coord)
 -16.00035  -15.08139   -7.47328   -4.91746   -4.68908   -4.28948   -3.78321   -3.24725
 kpt#  45, nband=  8, wtk=  1.00000, kpt=  0.0500  0.0500  0.0000 (reduced coord)
 -16.08126  -15.12783   -7.57056   -4.74205   -4.52262   -4.37405   -3.61779   -3.29655
 kpt#  46, nband=  8, wtk=  1.00000, kpt=  0.0333  0.0333  0.0000 (reduced coord)
 -16.13980  -15.16166   -7.64299   -4.60577   -4.43746   -4.37417   -3.51152   -3.35285
 kpt#  47, nband=  8, wtk=  1.00000, kpt=  0.0167  0.0167  0.0000 (reduced coord)
 -16.17516  -15.18194   -7.68765   -4.51814   -4.47522   -4.26560   -3.44586   -3.40060
 kpt#  48, nband=  8, wtk=  1.00000, kpt=  0.0000  0.0000  0.0000 (reduced coord)
 -16.18703  -15.18875   -7.70274   -4.48830   -4.48827   -4.22456   -3.42480   -3.42329

== END DATASET(S) ==============================================================
================================================================================
  
 -outvars: echo values of variables after computation  --------
            acell      6.0204074108E+00  6.0204074108E+00  1.9112404479E+01 Bohr
              amu      9.59400000E+01  3.20660000E+01
           diemac      1.20000000E+01
             ecut      1.70000000E+01 Hartree
           enunit1          0
           enunit2          1
           etotal1    -3.2166212385E+01
            fcart1     1.4908433042E-29  8.6073878303E-30 -0.0000000000E+00
                      -7.4542165212E-30 -4.3036939151E-30 -1.1446903588E-02
                      -7.4542165212E-30 -4.3036939151E-30  1.1446903588E-02
-          fftalg         112
           getden1          0
           getden2         -1
             iscf1          7
             iscf2         -2
           istwfk2       2    0    0    0    0    0    0    0    0    0
                         0    0    0    0    0    0    0    3    0    0
                         0    0    0    0    0    0    0    0    0    0
                         0    0    0    0    0    0    0    0    0    0
                         0    0    0    0    0    0    0    2
           jdtset        1    2
              kpt1     0.00000000E+00  0.00000000E+00  1.25000000E-01
                       2.50000000E-01  0.00000000E+00  1.25000000E-01
                       5.00000000E-01  0.00000000E+00  1.25000000E-01
                       2.50000000E-01  2.50000000E-01  1.25000000E-01
                       0.00000000E+00  0.00000000E+00  3.75000000E-01
                       2.50000000E-01  0.00000000E+00  3.75000000E-01
                       5.00000000E-01  0.00000000E+00  3.75000000E-01
                       2.50000000E-01  2.50000000E-01  3.75000000E-01
              kpt2     0.00000000E+00  0.00000000E+00  0.00000000E+00
                       2.94117647E-02  0.00000000E+00  0.00000000E+00
                       5.88235294E-02  0.00000000E+00  0.00000000E+00
                       8.82352941E-02  0.00000000E+00  0.00000000E+00
                       1.17647059E-01  0.00000000E+00  0.00000000E+00
                       1.47058824E-01  0.00000000E+00  0.00000000E+00
                       1.76470588E-01  0.00000000E+00  0.00000000E+00
                       2.05882353E-01  0.00000000E+00  0.00000000E+00
                       2.35294118E-01  0.00000000E+00  0.00000000E+00
                       2.64705882E-01  0.00000000E+00  0.00000000E+00
                       2.94117647E-01  0.00000000E+00  0.00000000E+00
                       3.23529412E-01  0.00000000E+00  0.00000000E+00
                       3.52941176E-01  0.00000000E+00  0.00000000E+00
                       3.82352941E-01  0.00000000E+00  0.00000000E+00
                       4.11764706E-01  0.00000000E+00  0.00000000E+00
                       4.41176471E-01  0.00000000E+00  0.00000000E+00
                       4.70588235E-01  0.00000000E+00  0.00000000E+00
                       5.00000000E-01  0.00000000E+00  0.00000000E+00
                       4.83333333E-01  3.33333333E-02  0.00000000E+00
                       4.66666667E-01  6.66666667E-02  0.00000000E+00
                       4.50000000E-01  1.00000000E-01  0.00000000E+00
                       4.33333333E-01  1.33333333E-01  0.00000000E+00
                       4.16666667E-01  1.66666667E-01  0.00000000E+00
                       4.00000000E-01  2.00000000E-01  0.00000000E+00
                       3.83333333E-01  2.33333333E-01  0.00000000E+00
                       3.66666667E-01  2.66666667E-01  0.00000000E+00
                       3.50000000E-01  3.00000000E-01  0.00000000E+00
                       3.33333333E-01  3.33333333E-01  0.00000000E+00
                       3.16666667E-01  3.16666667E-01  0.00000000E+00
                       3.00000000E-01  3.00000000E-01  0.00000000E+00
                       2.83333333E-01  2.83333333E-01  0.00000000E+00
                       2.66666667E-01  2.66666667E-01  0.00000000E+00
                       2.50000000E-01  2.50000000E-01  0.00000000E+00
                       2.33333333E-01  2.33333333E-01  0.00000000E+00
                       2.16666667E-01  2.16666667E-01  0.00000000E+00
                       2.00000000E-01  2.00000000E-01  0.00000000E+00
                       1.83333333E-01  1.83333333E-01  0.00000000E+00
                       1.66666667E-01  1.66666667E-01  0.00000000E+00
                       1.50000000E-01  1.50000000E-01  0.00000000E+00
                       1.33333333E-01  1.33333333E-01  0.00000000E+00
                       1.16666667E-01  1.16666667E-01  0.00000000E+00
                       1.00000000E-01  1.00000000E-01  0.00000000E+00
                       8.33333333E-02  8.33333333E-02  0.00000000E+00
                       6.66666667E-02  6.66666667E-02  0.00000000E+00
                       5.00000000E-02  5.00000000E-02  0.00000000E+00
                       3.33333333E-02  3.33333333E-02  0.00000000E+00
                       1.66666667E-02  1.66666667E-02  0.00000000E+00
                       0.00000000E+00  0.00000000E+00  0.00000000E+00
           kptopt1          1
           kptopt2         -3
         kptrlatt        4    0    0      0    4    0      0    0    4
          kptrlen1     2.40816296E+01
          kptrlen2     3.00000000E+01
P           mkmem1          8
P           mkmem2         48
            natom           3
            nband1         10
            nband2          8
           nbdbuf1          0
           nbdbuf2          2
           ndtset           2
            ngfft          24      24      72
             nkpt1          8
             nkpt2         48
            nstep          10
             nsym          12
           ntypat           2
              occ      2.000000  2.000000  2.000000  2.000000  2.000000  2.000000
                       2.000000  2.000000  2.000000  0.000000
            rprim      1.0000000000E+00  0.0000000000E+00  0.0000000000E+00
                      -5.0000000000E-01  8.6602540378E-01  0.0000000000E+00
                       0.0000000000E+00  0.0000000000E+00  1.0000000000E+00
           shiftk1     0.00000000E+00  0.00000000E+00  5.00000000E-01
           shiftk2     5.00000000E-01  5.00000000E-01  5.00000000E-01
          spgroup         187
           strten1     7.1174024848E-05  7.1174024903E-05  1.8137384109E-04
                       0.0000000000E+00  0.0000000000E+00  0.0000000000E+00
           symrel      1  0  0   0  1  0   0  0  1       0 -1  0  -1  0  0   0  0 -1
                      -1 -1  0   1  0  0   0  0 -1      -1  0  0   1  1  0   0  0  1
                       0  1  0  -1 -1  0   0  0  1       1  1  0   0 -1  0   0  0 -1
                       1  0  0   0  1  0   0  0 -1       0 -1  0  -1  0  0   0  0  1
                      -1 -1  0   1  0  0   0  0  1      -1  0  0   1  1  0   0  0 -1
                       0  1  0  -1 -1  0   0  0 -1       1  1  0   0 -1  0   0  0  1
           toldfe1     1.00000000E-06 Hartree
           toldfe2     0.00000000E+00 Hartree
           tolwfr1     0.00000000E+00
           tolwfr2     1.00000000E-12
            typat      1  2  2
              wtk1       0.03125    0.18750    0.09375    0.18750    0.03125    0.18750
                         0.09375    0.18750
              wtk2       1.00000    1.00000    1.00000    1.00000    1.00000    1.00000
                         1.00000    1.00000    1.00000    1.00000    1.00000    1.00000
                         1.00000    1.00000    1.00000    1.00000    1.00000    1.00000
                         1.00000    1.00000    1.00000    1.00000    1.00000    1.00000
                         1.00000    1.00000    1.00000    1.00000    1.00000    1.00000
                         1.00000    1.00000    1.00000    1.00000    1.00000    1.00000
                         1.00000    1.00000    1.00000    1.00000    1.00000    1.00000
                         1.00000    1.00000    1.00000    1.00000    1.00000    1.00000
           xangst      0.0000000000E+00  0.0000000000E+00  0.0000000000E+00
                       1.5929311941E+00  9.1967925372E-01  1.6484034495E+00
                       1.5929311941E+00  9.1967925372E-01 -1.6484034495E+00
            xcart      0.0000000000E+00  0.0000000000E+00  0.0000000000E+00
                       3.0102037054E+00  1.7379419196E+00  3.1150310760E+00
                       3.0102037054E+00  1.7379419196E+00 -3.1150310760E+00
             xred      0.0000000000E+00  0.0000000000E+00  0.0000000000E+00
                       6.6666666667E-01  3.3333333333E-01  1.6298478192E-01
                       6.6666666667E-01  3.3333333333E-01 -1.6298478192E-01
            znucl       42.00000   16.00000

================================================================================

- Total cpu        time (s,m,h):        151.7        2.53      0.042
- Total wall clock time (s,m,h):         41.9        0.70      0.012
-
- For major independent code sections, cpu and wall times (sec),
-  as well as % of the time and number of calls for node 0-
-<BEGIN_TIMER mpi_nprocs = 1, omp_nthreads = 1, mpi_rank = 0>
- cpu_time =          151.7, wall_time =           41.9
-
- routine                        cpu     %       wall     %      number of calls  Gflops    Speedup Efficacity
-                                                                  (-1=no count)
- fourwf%(pot)                  85.800  56.5     23.037  54.9          23605      -1.00        3.72       3.72
- nonlop(apply)                 36.720  24.2      9.855  23.5          23605      -1.00        3.73       3.73
- projbd                        15.092   9.9      4.019   9.6          37610      -1.00        3.76       3.76
- vtowfk(ssdiag)                 2.288   1.5      0.702   1.7             -1      -1.00        3.26       3.26
- getghc-other                   1.632   1.1      0.433   1.0             -1      -1.00        3.77       3.77
- fourwf%(den)                   1.532   1.0      0.398   0.9            720      -1.00        3.85       3.85
- pspini                         1.060   0.7      1.044   2.5              2      -1.00        1.02       1.02
- others (106)                   1.132   0.7      0.556   1.3             -1      -1.00        2.04       2.04
-<END_TIMER>
-
- subtotal                     145.256  95.7     40.044  95.5                                  3.63       3.63

- For major independent code sections, cpu and wall times (sec),
- as well as % of the total time and number of calls 

-<BEGIN_TIMER mpi_nprocs = 1, omp_nthreads = 1, mpi_rank = world>
- cpu_time =         151.7, wall_time =          41.9
-
- routine                         cpu     %       wall     %      number of calls Gflops    Speedup Efficacity
-                                                                  (-1=no count)
- fourwf%(pot)                  85.800  56.5     23.037  54.9          23605      -1.00        3.72       3.72
- nonlop(apply)                 36.720  24.2      9.855  23.5          23605      -1.00        3.73       3.73
- projbd                        15.092   9.9      4.019   9.6          37610      -1.00        3.76       3.76
- vtowfk(ssdiag)                 2.288   1.5      0.702   1.7             -1      -1.00        3.26       3.26
- getghc-other                   1.632   1.1      0.433   1.0             -1      -1.00        3.77       3.77
- fourwf%(den)                   1.532   1.0      0.398   0.9            720      -1.00        3.85       3.85
- pspini                         1.060   0.7      1.044   2.5              2      -1.00        1.02       1.02
- others (106)                   1.132   0.7      0.556   1.3             -1      -1.00        2.04       2.04
-<END_TIMER>

- subtotal                     145.256  95.7     40.044  95.5                                  3.63       3.63

================================================================================

 Suggested references for the acknowledgment of ABINIT usage.

 The users of ABINIT have little formal obligations with respect to the ABINIT group
 (those specified in the GNU General Public License, http://www.gnu.org/copyleft/gpl.txt).
 However, it is common practice in the scientific literature,
 to acknowledge the efforts of people that have made the research possible.
 In this spirit, please find below suggested citations of work written by ABINIT developers,
 corresponding to implementations inside of ABINIT that you have used in the present run.
 Note also that it will be of great value to readers of publications presenting these results,
 to read papers enabling them to understand the theoretical formalism and details
 of the ABINIT implementation.
 For information on why they are suggested, see also http://www.abinit.org/about/?text=acknowledgments.
-
- [1] Recent developments in the ABINIT software package.
- Computer Phys. Comm. 205, 106 (2016).
- X.Gonze, F.Jollet, F.Abreu Araujo, D.Adams, B.Amadon, T.Applencourt,
- C.Audouze, J.-M.Beuken, J.Bieder, A.Bokhanchuk, E.Bousquet, F.Bruneval
- D.Caliste, M.Cote, F.Dahm, F.Da Pieve, M.Delaveau, M.Di Gennaro,
- B.Dorado, C.Espejo, G.Geneste, L.Genovese, A.Gerossier, M.Giantomassi,
- Y.Gillet, D.R.Hamann, L.He, G.Jomard, J.Laflamme Janssen, S.Le Roux,
- A.Levitt, A.Lherbier, F.Liu, I.Lukacevic, A.Martin, C.Martins,
- M.J.T.Oliveira, S.Ponce, Y.Pouillon, T.Rangel, G.-M.Rignanese,
- A.H.Romero, B.Rousseau, O.Rubel, A.A.Shukri, M.Stankovski, M.Torrent,
- M.J.Van Setten, B.Van Troeye, M.J.Verstraete, D.Waroquier, J.Wiktor,
- B.Xue, A.Zhou, J.W.Zwanziger.
- Comment : the fourth generic paper describing the ABINIT project.
- Note that a version of this paper, that is not formatted for Computer Phys. Comm. 
- is available at http://www.abinit.org/about/ABINIT16.pdf .
- The licence allows the authors to put it on the Web.
-
- [2] Optimized norm-conserving Vanderbilt pseudopotentials.
- D.R. Hamann, Phys. Rev. B 88, 085117 (2013).
- Comment: Some pseudopotential generated using the ONCVPSP code were used.
-
- [3] ABINIT : First-principles approach of materials and nanosystem properties.
- Computer Phys. Comm. 180, 2582-2615 (2009).
- X. Gonze, B. Amadon, P.-M. Anglade, J.-M. Beuken, F. Bottin, P. Boulanger, F. Bruneval,
- D. Caliste, R. Caracas, M. Cote, T. Deutsch, L. Genovese, Ph. Ghosez, M. Giantomassi
- S. Goedecker, D.R. Hamann, P. Hermet, F. Jollet, G. Jomard, S. Leroux, M. Mancini, S. Mazevet,
- M.J.T. Oliveira, G. Onida, Y. Pouillon, T. Rangel, G.-M. Rignanese, D. Sangalli, R. Shaltaf,
- M. Torrent, M.J. Verstraete, G. Zerah, J.W. Zwanziger
- Comment : the third generic paper describing the ABINIT project.
- Note that a version of this paper, that is not formatted for Computer Phys. Comm. 
- is available at http://www.abinit.org/about/ABINIT_CPC_v10.pdf .
- The licence allows the authors to put it on the Web.
-
- [4] A brief introduction to the ABINIT software package.
- Z. Kristallogr. 220, 558-562 (2005).
- X. Gonze, G.-M. Rignanese, M. Verstraete, J.-M. Beuken, Y. Pouillon, R. Caracas, F. Jollet,
- M. Torrent, G. Zerah, M. Mikami, Ph. Ghosez, M. Veithen, J.-Y. Raty, V. Olevano, F. Bruneval,
- L. Reining, R. Godby, G. Onida, D.R. Hamann, and D.C. Allan.
- Comment : the second generic paper describing the ABINIT project. Note that this paper
- should be cited especially if you are using the GW part of ABINIT, as several authors
- of this part are not in the list of authors of the first or third paper.
- The .pdf of the latter paper is available at http://www.abinit.org/about/zfk_0505-06_558-562.pdf.
- Note that it should not redistributed (Copyright by Oldenburg Wissenshaftverlag,
- the licence allows the authors to put it on the Web).
-
- And optionally:
-
- [5] First-principles computation of material properties : the ABINIT software project. 
- X. Gonze, J.-M. Beuken, R. Caracas, F. Detraux, M. Fuchs, G.-M. Rignanese, L. Sindic,
- M. Verstraete, G. Zerah, F. Jollet, M. Torrent, A. Roy, M. Mikami, Ph. Ghosez, J.-Y. Raty, D.C. Allan.
- Computational Materials Science 25, 478-492 (2002). http://dx.doi.org/10.1016/S0927-0256(02)00325-7
- Comment : the original paper describing the ABINIT project.
-
- Proc.   0 individual time (sec): cpu=        151.7  wall=         41.9

================================================================================

 Calculation completed.
.Delivered  55 WARNINGs and   0 COMMENTs to log file.
+Overall time at end (sec) : cpu=        151.7  wall=         41.9
