
.Version 8.4.1 of ABINIT 
.(sequential version, prepared for a x86_64_linux_gnu7.0 computer) 

.Copyright (C) 1998-2017 ABINIT group . 
 ABINIT comes with ABSOLUTELY NO WARRANTY.
 It is free software, and you are welcome to redistribute it
 under certain conditions (GNU General Public License,
 see ~abinit/COPYING or http://www.gnu.org/copyleft/gpl.txt).

 ABINIT is a project of the Universite Catholique de Louvain,
 Corning Inc. and other collaborators, see ~abinit/doc/developers/contributors.txt .
 Please read ~abinit/doc/users/acknowledgments.html for suggested
 acknowledgments of the ABINIT effort.
 For more information, see http://www.abinit.org .

.Starting date : Wed  9 Aug 2017.
- ( at 10h46 )
  
- input  file    -> mos2_5.in
- output file    -> mos2_5.out
- root for input  files -> mos2_5i
- root for output files -> mos2_5o


 DATASET    1 : space group P-6 m 2 (#187); Bravais hP (primitive hexag.)
================================================================================
 Values of the parameters that define the memory need for DATASET  1.
     intxc =       0    ionmov =       0      iscf =       7    lmnmax =       6
     lnmax =       6     mgfft =      72  mpssoang =       3    mqgrid =    3548
     natom =       3  nloc_mem =       1    nspden =       1   nspinor =       1
    nsppol =       1      nsym =      12    n1xccc =    2501    ntypat =       2
    occopt =       1   xclevel =       1
-    mband =          10        mffmem =           1         mkmem =           8
       mpw =        2052          nfft =       41472          nkpt =           8
================================================================================
P This job should need less than                      16.211 Mbytes of memory.
  Rough estimation (10% accuracy) of disk space for files :
_ WF disk file :      2.507 Mbytes ; DEN or POT disk file :      0.318 Mbytes.
================================================================================


 DATASET    2 : space group P-6 m 2 (#187); Bravais hP (primitive hexag.)
================================================================================
 Values of the parameters that define the memory need for DATASET  2.
     intxc =       0    ionmov =       0      iscf =      -2    lmnmax =       6
     lnmax =       6     mgfft =      72  mpssoang =       3    mqgrid =    3548
     natom =       3  nloc_mem =       1    nspden =       1   nspinor =       1
    nsppol =       1      nsym =      12    n1xccc =    2501    ntypat =       2
    occopt =       1   xclevel =       1
-    mband =          16        mffmem =           1         mkmem =          48
       mpw =        2041          nfft =       41472          nkpt =          48
================================================================================
P This job should need less than                      33.616 Mbytes of memory.
  Rough estimation (10% accuracy) of disk space for files :
_ WF disk file :     23.920 Mbytes ; DEN or POT disk file :      0.318 Mbytes.
================================================================================

--------------------------------------------------------------------------------
------------- Echo of variables that govern the present computation ------------
--------------------------------------------------------------------------------
-
- outvars: echo of selected default values                                      
-   iomode0 =  0 , fftalg0 =112 , wfoptalg0 =  0
-
- outvars: echo of global parameters not present in the input file              
-  max_nthreads =    0
-
 -outvars: echo values of preprocessed input variables --------
            acell      6.0204074108E+00  6.0204074108E+00  1.9112404479E+01 Bohr
              amu      9.59400000E+01  3.20660000E+01
           diemac      1.20000000E+01
             ecut      1.70000000E+01 Hartree
           enunit1          0
           enunit2          1
-          fftalg         112
           getden1          0
           getden2         -1
             iscf1          7
             iscf2         -2
           istwfk2       2    0    0    0    0    0    0    0    0    0
                         0    0    0    0    0    0    0    3    0    0
                         0    0    0    0    0    0    0    0    0    0
                         0    0    0    0    0    0    0    0    0    0
                         0    0    0    0    0    0    0    2
           jdtset        1    2
              kpt1     0.00000000E+00  0.00000000E+00  1.25000000E-01
                       2.50000000E-01  0.00000000E+00  1.25000000E-01
                       5.00000000E-01  0.00000000E+00  1.25000000E-01
                       2.50000000E-01  2.50000000E-01  1.25000000E-01
                       0.00000000E+00  0.00000000E+00  3.75000000E-01
                       2.50000000E-01  0.00000000E+00  3.75000000E-01
                       5.00000000E-01  0.00000000E+00  3.75000000E-01
                       2.50000000E-01  2.50000000E-01  3.75000000E-01
              kpt2     0.00000000E+00  0.00000000E+00  0.00000000E+00
                       2.94117647E-02  0.00000000E+00  0.00000000E+00
                       5.88235294E-02  0.00000000E+00  0.00000000E+00
                       8.82352941E-02  0.00000000E+00  0.00000000E+00
                       1.17647059E-01  0.00000000E+00  0.00000000E+00
                       1.47058824E-01  0.00000000E+00  0.00000000E+00
                       1.76470588E-01  0.00000000E+00  0.00000000E+00
                       2.05882353E-01  0.00000000E+00  0.00000000E+00
                       2.35294118E-01  0.00000000E+00  0.00000000E+00
                       2.64705882E-01  0.00000000E+00  0.00000000E+00
                       2.94117647E-01  0.00000000E+00  0.00000000E+00
                       3.23529412E-01  0.00000000E+00  0.00000000E+00
                       3.52941176E-01  0.00000000E+00  0.00000000E+00
                       3.82352941E-01  0.00000000E+00  0.00000000E+00
                       4.11764706E-01  0.00000000E+00  0.00000000E+00
                       4.41176471E-01  0.00000000E+00  0.00000000E+00
                       4.70588235E-01  0.00000000E+00  0.00000000E+00
                       5.00000000E-01  0.00000000E+00  0.00000000E+00
                       4.83333333E-01  3.33333333E-02  0.00000000E+00
                       4.66666667E-01  6.66666667E-02  0.00000000E+00
                       4.50000000E-01  1.00000000E-01  0.00000000E+00
                       4.33333333E-01  1.33333333E-01  0.00000000E+00
                       4.16666667E-01  1.66666667E-01  0.00000000E+00
                       4.00000000E-01  2.00000000E-01  0.00000000E+00
                       3.83333333E-01  2.33333333E-01  0.00000000E+00
                       3.66666667E-01  2.66666667E-01  0.00000000E+00
                       3.50000000E-01  3.00000000E-01  0.00000000E+00
                       3.33333333E-01  3.33333333E-01  0.00000000E+00
                       3.16666667E-01  3.16666667E-01  0.00000000E+00
                       3.00000000E-01  3.00000000E-01  0.00000000E+00
                       2.83333333E-01  2.83333333E-01  0.00000000E+00
                       2.66666667E-01  2.66666667E-01  0.00000000E+00
                       2.50000000E-01  2.50000000E-01  0.00000000E+00
                       2.33333333E-01  2.33333333E-01  0.00000000E+00
                       2.16666667E-01  2.16666667E-01  0.00000000E+00
                       2.00000000E-01  2.00000000E-01  0.00000000E+00
                       1.83333333E-01  1.83333333E-01  0.00000000E+00
                       1.66666667E-01  1.66666667E-01  0.00000000E+00
                       1.50000000E-01  1.50000000E-01  0.00000000E+00
                       1.33333333E-01  1.33333333E-01  0.00000000E+00
                       1.16666667E-01  1.16666667E-01  0.00000000E+00
                       1.00000000E-01  1.00000000E-01  0.00000000E+00
                       8.33333333E-02  8.33333333E-02  0.00000000E+00
                       6.66666667E-02  6.66666667E-02  0.00000000E+00
                       5.00000000E-02  5.00000000E-02  0.00000000E+00
                       3.33333333E-02  3.33333333E-02  0.00000000E+00
                       1.66666667E-02  1.66666667E-02  0.00000000E+00
                       0.00000000E+00  0.00000000E+00  0.00000000E+00
           kptopt1          1
           kptopt2         -3
         kptrlatt        4    0    0      0    4    0      0    0    4
          kptrlen1     2.40816296E+01
          kptrlen2     3.00000000E+01
P           mkmem1          8
P           mkmem2         48
            natom           3
            nband1         10
            nband2         16
           nbdbuf1          0
           nbdbuf2          2
           ndtset           2
            ngfft          24      24      72
             nkpt1          8
             nkpt2         48
            nstep          10
             nsym          12
           ntypat           2
              occ      2.000000  2.000000  2.000000  2.000000  2.000000  2.000000
                       2.000000  2.000000  2.000000  0.000000
            rprim      1.0000000000E+00  0.0000000000E+00  0.0000000000E+00
                      -5.0000000000E-01  8.6602540378E-01  0.0000000000E+00
                       0.0000000000E+00  0.0000000000E+00  1.0000000000E+00
           shiftk1     0.00000000E+00  0.00000000E+00  5.00000000E-01
           shiftk2     5.00000000E-01  5.00000000E-01  5.00000000E-01
          spgroup         187
           symrel      1  0  0   0  1  0   0  0  1       0 -1  0  -1  0  0   0  0 -1
                      -1 -1  0   1  0  0   0  0 -1      -1  0  0   1  1  0   0  0  1
                       0  1  0  -1 -1  0   0  0  1       1  1  0   0 -1  0   0  0 -1
                       1  0  0   0  1  0   0  0 -1       0 -1  0  -1  0  0   0  0  1
                      -1 -1  0   1  0  0   0  0  1      -1  0  0   1  1  0   0  0 -1
                       0  1  0  -1 -1  0   0  0 -1       1  1  0   0 -1  0   0  0  1
           toldfe1     1.00000000E-06 Hartree
           toldfe2     0.00000000E+00 Hartree
           tolwfr1     0.00000000E+00
           tolwfr2     1.00000000E-12
            typat      1  2  2
              wtk1       0.03125    0.18750    0.09375    0.18750    0.03125    0.18750
                         0.09375    0.18750
              wtk2       1.00000    1.00000    1.00000    1.00000    1.00000    1.00000
                         1.00000    1.00000    1.00000    1.00000    1.00000    1.00000
                         1.00000    1.00000    1.00000    1.00000    1.00000    1.00000
                         1.00000    1.00000    1.00000    1.00000    1.00000    1.00000
                         1.00000    1.00000    1.00000    1.00000    1.00000    1.00000
                         1.00000    1.00000    1.00000    1.00000    1.00000    1.00000
                         1.00000    1.00000    1.00000    1.00000    1.00000    1.00000
                         1.00000    1.00000    1.00000    1.00000    1.00000    1.00000
           xangst      0.0000000000E+00  0.0000000000E+00  0.0000000000E+00
                       1.5929311941E+00  9.1967925372E-01  1.6484034495E+00
                       1.5929311941E+00  9.1967925372E-01 -1.6484034495E+00
            xcart      0.0000000000E+00  0.0000000000E+00  0.0000000000E+00
                       3.0102037054E+00  1.7379419196E+00  3.1150310760E+00
                       3.0102037054E+00  1.7379419196E+00 -3.1150310760E+00
             xred      0.0000000000E+00  0.0000000000E+00  0.0000000000E+00
                       6.6666666667E-01  3.3333333333E-01  1.6298478192E-01
                       6.6666666667E-01  3.3333333333E-01 -1.6298478192E-01
            znucl       42.00000   16.00000

================================================================================

 chkinp: Checking input parameters for consistency, jdtset=   1.

 chkinp: Checking input parameters for consistency, jdtset=   2.

================================================================================
== DATASET  1 ==================================================================
-   nproc =    1

 Exchange-correlation functional for the present dataset will be:
  LDA: new Teter (4/93) with spin-polarized option - ixc=1
 Citation for XC functional:
  S. Goedecker, M. Teter, J. Huetter, PRB 54, 1703 (1996)

 Real(R)+Recip(G) space primitive vectors, cartesian coordinates (Bohr,Bohr^-1):
 R(1)=  6.0204074  0.0000000  0.0000000  G(1)=  0.1661017  0.0958989  0.0000000
 R(2)= -3.0102037  5.2138258  0.0000000  G(2)=  0.0000000  0.1917977  0.0000000
 R(3)=  0.0000000  0.0000000 19.1124045  G(3)=  0.0000000  0.0000000  0.0523220
 Unit cell volume ucvol=  5.9992605E+02 bohr^3
 Angles (23,13,12)=  9.00000000E+01  9.00000000E+01  1.20000000E+02 degrees

 getcut: wavevector=  0.0000  0.0000  0.0000  ngfft=  24  24  72
         ecut(hartree)=     17.000   => boxcut(ratio)=   2.02968

--- Pseudopotential description ------------------------------------------------
- pspini: atom type   1  psp file is ./42mo.pspnc
- pspatm: opening atomic psp file    ./42mo.pspnc
-  Troullier-Martins psp for element  Mo        Thu Oct 27 17:40:28 EDT 1994
- 42.00000   6.00000    940714                znucl, zion, pspdat
    1    1    2    0      2001   0.00000      pspcod,pspxc,lmax,lloc,mmax,r2well
    0   4.276   7.035    0   2.8930462        l,e99.0,e99.9,nproj,rcpsp
   0.00000000   0.00000000   0.00000000   0.00000000     rms, ekb1, ekb2, epsatm
    1   1.499   2.758    1   3.1973167        l,e99.0,e99.9,nproj,rcpsp
   0.00000000   0.00000000   0.00000000   0.00000000     rms, ekb1, ekb2, epsatm
    2  11.774  15.725    1   2.1974630        l,e99.0,e99.9,nproj,rcpsp
   0.00000000   0.00000000   0.00000000   0.00000000     rms, ekb1, ekb2, epsatm
    2.63204696240783    0.28531456933550    4.53995799271176   rchrg,fchrg,qchrg
 pspatm: epsatm=   89.23647829
         --- l  ekb(1:nproj) -->
             1    0.432305
             2   -4.457359
 pspatm: atomic psp has been read  and splines computed

- pspini: atom type   2  psp file is ./S.psp8
- pspatm: opening atomic psp file    ./S.psp8
- S     ONCVPSP  r_core=  1.45  1.45  1.62
- 16.00000   6.00000    151027                znucl, zion, pspdat
    8   11    2    4       600   0.00000      pspcod,pspxc,lmax,lloc,mmax,r2well
    5.99000000000000    6.00000000000000    0.00000000000000   rchrg,fchrg,qchrg
     nproj     2     2     2
extension_switch     1
 pspatm: epsatm=    9.01629391
         --- l  ekb(1:nproj) -->
             0    6.687458    0.573856
             1    3.355342    0.912754
             2   -8.510942   -1.367258
 pspatm: atomic psp has been read  and splines computed

   1.93084319E+03                                ecore*ucvol(ha*bohr**3)
--------------------------------------------------------------------------------

_setup2: Arith. and geom. avg. npw (full set) are    2009.969    2009.937

================================================================================

     iter   Etot(hartree)      deltaE(h)  residm     vres2
 ETOT  1  -31.408923071630    -3.141E+01 6.168E-02 4.015E+03
 ETOT  2  -30.905312594254     5.036E-01 3.882E-03 7.204E+03
 ETOT  3  -32.157654729421    -1.252E+00 1.355E-02 2.134E+01
 ETOT  4  -32.165214728382    -7.560E-03 5.923E-03 1.393E+01
 ETOT  5  -32.164989710529     2.250E-04 2.588E-03 9.351E+00
 ETOT  6  -32.166146534812    -1.157E-03 1.221E-03 2.893E-01
 ETOT  7  -32.166161818259    -1.528E-05 7.409E-04 2.320E-01
 ETOT  8  -32.166207439600    -4.562E-05 4.615E-04 7.311E-02
 ETOT  9  -32.166209075263    -1.636E-06 3.899E-04 2.558E-02
 ETOT 10  -32.166212385357    -3.310E-06 3.424E-04 2.075E-04

 Cartesian components of stress tensor (hartree/bohr^3)
  sigma(1 1)=  7.11740248E-05  sigma(3 2)=  0.00000000E+00
  sigma(2 2)=  7.11740249E-05  sigma(3 1)=  0.00000000E+00
  sigma(3 3)=  1.81373841E-04  sigma(2 1)=  0.00000000E+00


 scprqt:  WARNING -
  nstep=   10 was not enough SCF cycles to converge;
  maximum energy difference=  3.310E-06 exceeds toldfe=  1.000E-06

 Integrated electronic density in atomic spheres:
 ------------------------------------------------
 Atom  Sphere_radius  Integrated_density
    1        2.00000          2.91239893
    2        2.00000          3.82009880
    3        2.00000          3.82009880
================================================================================

 ----iterations are completed or convergence reached----

 Mean square residual over all n,k,spin=   8.0315E-06; max=  3.4240E-04
 reduced coordinates (array xred) for    3 atoms
       0.000000000000      0.000000000000      0.000000000000
       0.666666666667      0.333333333333      0.162984781920
       0.666666666667      0.333333333333     -0.162984781920
 rms dE/dt=  1.0313E-01; max dE/dt=  2.1878E-01; dE/dt below (all hartree)
    1       0.000000000000      0.000000000000      0.000000000000
    2       0.000000000000      0.000000000000      0.218777851399
    3       0.000000000000      0.000000000000     -0.218777851399

 cartesian coordinates (angstrom) at end:
    1      0.00000000000000     0.00000000000000     0.00000000000000
    2      1.59293119411085     0.91967925371574     1.64840344945643
    3      1.59293119411085     0.91967925371574    -1.64840344945643

 cartesian forces (hartree/bohr) at end:
    1      0.00000000000000     0.00000000000000    -0.00000000000000
    2     -0.00000000000000    -0.00000000000000    -0.01144690358764
    3     -0.00000000000000    -0.00000000000000     0.01144690358764
 frms,max,avg= 5.3961221E-03 1.1446904E-02   0.000E+00  0.000E+00  0.000E+00 h/b

 cartesian forces (eV/Angstrom) at end:
    1      0.00000000000000     0.00000000000000    -0.00000000000000
    2     -0.00000000000000    -0.00000000000000    -0.58862339963900
    3     -0.00000000000000    -0.00000000000000     0.58862339963900
 frms,max,avg= 2.7747973E-01 5.8862340E-01   0.000E+00  0.000E+00  0.000E+00 e/A
 length scales=  6.020407410800  6.020407410800 19.112404479000 bohr
              =  3.185862388222  3.185862388222 10.113848851640 angstroms
 prteigrs : about to open file mos2_5o_DS1_EIG
 Fermi (or HOMO) energy (hartree) =  -0.09702   Average Vxc (hartree)=  -0.28291
 Eigenvalues (hartree) for nkpt=   8  k points:
 kpt#   1, nband= 10, wtk=  0.03125, kpt=  0.0000  0.0000  0.1250 (reduced coord)
  -0.59489   -0.55822   -0.28302   -0.16486   -0.16486   -0.15541   -0.12584   -0.12584
  -0.09769    0.01829
 prteigrs : prtvol=0 or 1, do not print more k-points.


--------------------------------------------------------------------------------
 Components of total free energy (in Hartree) :

    Kinetic energy  =  1.55858267353005E+01
    Hartree energy  =  2.59392264297292E+01
    XC energy       = -1.08203036493089E+01
    Ewald energy    = -3.10482230944750E+00
    PspCore energy  =  3.21846864015186E+00
    Loc. psp. energy= -5.71863617639981E+01
    NL   psp  energy= -5.79824646778408E+00
    >>>>>>>>> Etotal= -3.21662123853570E+01

 Other information on the energy :
    Total energy(eV)= -8.75287152540236E+02 ; Band energy (Ha)=  -4.7415114872E+00
--------------------------------------------------------------------------------

 Cartesian components of stress tensor (hartree/bohr^3)
  sigma(1 1)=  7.11740248E-05  sigma(3 2)=  0.00000000E+00
  sigma(2 2)=  7.11740249E-05  sigma(3 1)=  0.00000000E+00
  sigma(3 3)=  1.81373841E-04  sigma(2 1)=  0.00000000E+00

-Cartesian components of stress tensor (GPa)         [Pressure= -3.1747E+00 GPa]
- sigma(1 1)=  2.09401175E+00  sigma(3 2)=  0.00000000E+00
- sigma(2 2)=  2.09401176E+00  sigma(3 1)=  0.00000000E+00
- sigma(3 3)=  5.33620174E+00  sigma(2 1)=  0.00000000E+00

================================================================================
== DATASET  2 ==================================================================
-   nproc =    1

 mkfilename : getden/=0, take file _DEN from output of DATASET   1.

 Exchange-correlation functional for the present dataset will be:
  LDA: new Teter (4/93) with spin-polarized option - ixc=1
 Citation for XC functional:
  S. Goedecker, M. Teter, J. Huetter, PRB 54, 1703 (1996)

 Real(R)+Recip(G) space primitive vectors, cartesian coordinates (Bohr,Bohr^-1):
 R(1)=  6.0204074  0.0000000  0.0000000  G(1)=  0.1661017  0.0958989  0.0000000
 R(2)= -3.0102037  5.2138258  0.0000000  G(2)=  0.0000000  0.1917977  0.0000000
 R(3)=  0.0000000  0.0000000 19.1124045  G(3)=  0.0000000  0.0000000  0.0523220
 Unit cell volume ucvol=  5.9992605E+02 bohr^3
 Angles (23,13,12)=  9.00000000E+01  9.00000000E+01  1.20000000E+02 degrees

 getcut: wavevector=  0.0000  0.0000  0.0000  ngfft=  24  24  72
         ecut(hartree)=     17.000   => boxcut(ratio)=   2.02968
--------------------------------------------------------------------------------


================================================================================
 prteigrs : about to open file mos2_5o_DS2_EIG
 Non-SCF case, kpt    1 (  0.00000  0.00000  0.00000), residuals and eigenvalues=
  6.33E-13  5.13E-13  4.54E-13  3.68E-13  9.39E-13  6.06E-13  4.75E-13  7.02E-13
  4.78E-13  3.14E-13  3.53E-13  5.87E-13  8.16E-13  5.13E-13  5.38E-09  2.22E-07
 -5.9486E-01 -5.5818E-01 -2.8307E-01 -1.6494E-01 -1.6494E-01 -1.5525E-01
 -1.2586E-01 -1.2586E-01 -9.7880E-02  1.7429E-02  1.7429E-02  1.8533E-02
  1.8533E-02  9.9554E-02  1.6688E-01  2.0233E-01
  prteigrs : nnsclo,ikpt=   10    1 max resid (incl. the buffer)=  2.21547E-07
 Non-SCF case, kpt    2 (  0.02941  0.00000  0.00000), residuals and eigenvalues=
  9.05E-13  7.42E-13  2.00E-13  9.62E-13  6.34E-13  4.88E-13  6.64E-13  3.69E-13
  5.78E-13  8.08E-13  6.28E-13  6.88E-13  3.05E-13  7.51E-13  3.40E-10  1.18E-08
 -5.9441E-01 -5.5792E-01 -2.8250E-01 -1.6608E-01 -1.6445E-01 -1.5682E-01
 -1.2668E-01 -1.2508E-01 -9.7949E-02  1.6421E-02  1.6799E-02  1.8026E-02
  1.8163E-02  1.0069E-01  1.6889E-01  2.0292E-01
  prteigrs : nnsclo,ikpt=   10    2 max resid (incl. the buffer)=  1.17910E-08
 Non-SCF case, kpt    3 (  0.05882  0.00000  0.00000), residuals and eigenvalues=
  7.69E-13  5.54E-13  6.61E-13  6.69E-13  9.54E-13  1.68E-13  6.34E-13  9.62E-13
  8.63E-13  5.38E-13  6.47E-13  5.77E-13  7.23E-13  7.28E-13  1.14E-10  6.19E-08
 -5.9306E-01 -5.5715E-01 -2.8079E-01 -1.6943E-01 -1.6301E-01 -1.6095E-01
 -1.2901E-01 -1.2333E-01 -9.8201E-02  1.2081E-02  1.3714E-02  1.6527E-02
  2.0264E-02  1.0377E-01  1.7471E-01  2.0461E-01
  prteigrs : nnsclo,ikpt=   10    3 max resid (incl. the buffer)=  6.18727E-08
 Non-SCF case, kpt    4 (  0.08824  0.00000  0.00000), residuals and eigenvalues=
  6.93E-13  4.73E-13  5.53E-13  8.22E-13  4.99E-13  7.07E-13  4.60E-13  8.44E-13
  4.51E-13  7.74E-13  6.28E-13  8.29E-13  7.60E-13  6.63E-13  1.94E-09  5.14E-09
 -5.9083E-01 -5.5586E-01 -2.7804E-01 -1.7461E-01 -1.6666E-01 -1.6060E-01
 -1.3266E-01 -1.2179E-01 -9.8793E-02  5.5784E-03  1.0391E-02  1.4228E-02
  2.3490E-02  1.0816E-01  1.8368E-01  2.0723E-01
  prteigrs : nnsclo,ikpt=   10    4 max resid (incl. the buffer)=  5.14447E-09
 Non-SCF case, kpt    5 (  0.11765  0.00000  0.00000), residuals and eigenvalues=
  7.26E-13  4.96E-13  8.94E-13  3.25E-13  2.13E-13  3.47E-13  5.07E-13  6.20E-13
  3.35E-13  3.98E-13  4.58E-13  9.48E-13  7.34E-13  9.30E-13  6.00E-09  7.02E-08
 -5.8775E-01 -5.5408E-01 -2.7436E-01 -1.8132E-01 -1.7328E-01 -1.5725E-01
 -1.3723E-01 -1.2135E-01 -9.9927E-02 -1.4814E-03  7.6315E-03  1.1361E-02
  2.7568E-02  1.1338E-01  1.9467E-01  2.1060E-01
  prteigrs : nnsclo,ikpt=   10    5 max resid (incl. the buffer)=  7.01933E-08
 Non-SCF case, kpt    6 (  0.14706  0.00000  0.00000), residuals and eigenvalues=
  5.07E-13  4.47E-13  8.39E-13  4.46E-13  3.26E-13  3.61E-13  8.87E-13  7.06E-13
  5.60E-13  8.85E-13  6.92E-13  7.93E-13  3.30E-13  2.19E-13  3.54E-09  7.33E-09
 -5.8388E-01 -5.5186E-01 -2.6997E-01 -1.8907E-01 -1.8054E-01 -1.5317E-01
 -1.4247E-01 -1.2258E-01 -1.0191E-01 -7.9803E-03  6.2613E-03  8.0822E-03
  3.2064E-02  1.1920E-01  2.0600E-01  2.1448E-01
  prteigrs : nnsclo,ikpt=   10    6 max resid (incl. the buffer)=  7.32928E-09
 Non-SCF case, kpt    7 (  0.17647  0.00000  0.00000), residuals and eigenvalues=
  9.95E-13  6.52E-13  2.64E-13  5.37E-13  4.36E-13  2.65E-13  4.72E-13  2.05E-13
  6.61E-13  8.14E-13  7.20E-13  9.86E-13  4.29E-13  8.81E-13  1.02E-08  5.87E-08
 -5.7929E-01 -5.4924E-01 -2.6521E-01 -1.9739E-01 -1.8828E-01 -1.4844E-01
 -1.4807E-01 -1.2543E-01 -1.0492E-01 -1.3055E-02  4.7058E-03  6.8785E-03
  3.6677E-02  1.2555E-01  2.1534E-01  2.1856E-01
  prteigrs : nnsclo,ikpt=   10    7 max resid (incl. the buffer)=  5.87060E-08
 Non-SCF case, kpt    8 (  0.20588  0.00000  0.00000), residuals and eigenvalues=
  4.49E-13  4.74E-13  5.00E-13  9.04E-13  3.44E-13  6.49E-13  8.19E-13  7.08E-13
  4.07E-13  6.05E-13  5.81E-13  6.79E-13  4.59E-13  7.99E-13  7.91E-08  1.65E-08
 -5.7407E-01 -5.4627E-01 -2.6063E-01 -2.0563E-01 -1.9643E-01 -1.5380E-01
 -1.4323E-01 -1.2956E-01 -1.0888E-01 -1.6145E-02  1.4922E-03  9.4683E-03
  4.1138E-02  1.3241E-01  2.2016E-01  2.2232E-01
  prteigrs : nnsclo,ikpt=   10    8 max resid (incl. the buffer)=  7.91236E-08
 Non-SCF case, kpt    9 (  0.23529  0.00000  0.00000), residuals and eigenvalues=
  7.37E-13  4.75E-13  2.93E-13  5.05E-13  6.35E-13  4.42E-13  2.88E-13  7.79E-13
  8.54E-13  9.40E-13  7.93E-13  5.66E-13  9.19E-13  5.27E-13  5.64E-08  2.96E-08
 -5.6833E-01 -5.4302E-01 -2.5714E-01 -2.1304E-01 -2.0492E-01 -1.5944E-01
 -1.3778E-01 -1.3437E-01 -1.1336E-01 -1.7123E-02 -1.3887E-03  1.3663E-02
  4.5245E-02  1.3974E-01  2.1948E-01  2.2483E-01
  prteigrs : nnsclo,ikpt=   10    9 max resid (incl. the buffer)=  5.63675E-08
 Non-SCF case, kpt   10 (  0.26471  0.00000  0.00000), residuals and eigenvalues=
  5.29E-13  5.97E-13  1.52E-13  6.15E-13  4.22E-13  5.37E-13  6.14E-13  3.82E-13
  7.35E-13  3.39E-13  4.49E-13  6.31E-13  3.22E-13  1.91E-12  2.39E-07  1.10E-07
 -5.6221E-01 -5.3957E-01 -2.5597E-01 -2.1854E-01 -2.1361E-01 -1.6481E-01
 -1.3929E-01 -1.3229E-01 -1.1758E-01 -1.6168E-02 -3.6488E-03  1.9039E-02
  4.8885E-02  1.4750E-01  2.1432E-01  2.2478E-01
  prteigrs : nnsclo,ikpt=   10   10 max resid (incl. the buffer)=  2.39388E-07
 Non-SCF case, kpt   11 (  0.29412  0.00000  0.00000), residuals and eigenvalues=
  6.15E-13  4.94E-13  3.14E-13  8.63E-13  6.62E-13  8.38E-13  3.40E-13  4.09E-13
  4.95E-13  9.85E-13  4.77E-13  7.55E-13  4.42E-13  6.17E-13  2.22E-09  1.14E-08
 -5.5588E-01 -5.3604E-01 -2.5816E-01 -2.2231E-01 -2.2146E-01 -1.6976E-01
 -1.4391E-01 -1.2697E-01 -1.2069E-01 -1.3745E-02 -5.1648E-03  2.5081E-02
  5.2019E-02  1.5550E-01  2.0577E-01  2.2149E-01
  prteigrs : nnsclo,ikpt=   10   11 max resid (incl. the buffer)=  1.13512E-08
 Non-SCF case, kpt   12 (  0.32353  0.00000  0.00000), residuals and eigenvalues=
  5.68E-13  8.76E-13  4.19E-13  3.17E-13  5.58E-13  3.77E-13  4.13E-13  4.91E-13
  4.22E-13  2.85E-13  2.98E-13  9.90E-13  5.43E-13  8.09E-12  5.50E-09  8.56E-08
 -5.4953E-01 -5.3254E-01 -2.6317E-01 -2.3074E-01 -2.2246E-01 -1.7423E-01
 -1.4797E-01 -1.2208E-01 -1.2200E-01 -1.0119E-02 -5.9029E-03  3.1298E-02
  5.4623E-02  1.6352E-01  1.9469E-01  2.1621E-01
  prteigrs : nnsclo,ikpt=   10   12 max resid (incl. the buffer)=  8.55728E-08
 Non-SCF case, kpt   13 (  0.35294  0.00000  0.00000), residuals and eigenvalues=
  6.18E-13  7.00E-13  2.32E-13  7.51E-13  3.54E-13  3.80E-13  5.81E-13  3.84E-13
  7.79E-13  9.34E-13  5.25E-13  8.62E-13  2.88E-13  1.73E-11  3.74E-11  4.68E-09
 -5.4342E-01 -5.2919E-01 -2.6955E-01 -2.3863E-01 -2.2294E-01 -1.7813E-01
 -1.5137E-01 -1.2133E-01 -1.1786E-01 -5.8259E-03 -5.7138E-03  3.7221E-02
  5.6699E-02  1.7033E-01  1.8300E-01  2.1069E-01
  prteigrs : nnsclo,ikpt=   10   13 max resid (incl. the buffer)=  4.67989E-09
 Non-SCF case, kpt   14 (  0.38235  0.00000  0.00000), residuals and eigenvalues=
  7.51E-13  5.50E-13  6.28E-13  2.71E-13  3.48E-13  3.63E-13  4.53E-13  3.66E-13
  4.41E-13  6.30E-13  5.05E-13  9.99E-13  7.18E-13  5.74E-11  7.28E-11  1.86E-09
 -5.3780E-01 -5.2616E-01 -2.7607E-01 -2.4562E-01 -2.2366E-01 -1.8140E-01
 -1.5408E-01 -1.1897E-01 -1.1438E-01 -5.1017E-03 -8.8680E-04  4.2503E-02
  5.8314E-02  1.6542E-01  1.8225E-01  2.0609E-01
  prteigrs : nnsclo,ikpt=   10   14 max resid (incl. the buffer)=  1.85777E-09
 Non-SCF case, kpt   15 (  0.41176  0.00000  0.00000), residuals and eigenvalues=
  4.78E-13  9.03E-13  7.35E-13  8.22E-13  5.66E-13  1.25E-13  5.93E-13  3.14E-13
  5.30E-13  3.04E-13  9.90E-13  6.52E-13  7.31E-13  9.50E-12  8.54E-10  7.61E-09
 -5.3297E-01 -5.2360E-01 -2.8189E-01 -2.5142E-01 -2.2466E-01 -1.8399E-01
 -1.5611E-01 -1.1573E-01 -1.1174E-01 -4.1025E-03  4.0118E-03  4.6887E-02
  5.9483E-02  1.5333E-01  1.8885E-01  2.0277E-01
  prteigrs : nnsclo,ikpt=   10   15 max resid (incl. the buffer)=  7.60674E-09
 Non-SCF case, kpt   16 (  0.44118  0.00000  0.00000), residuals and eigenvalues=
  5.40E-13  5.52E-13  8.95E-13  5.06E-13  2.88E-13  3.49E-13  7.55E-13  4.34E-13
  5.44E-13  6.46E-13  2.83E-13  9.11E-13  4.42E-13  3.12E-12  5.74E-09  3.45E-09
 -5.2925E-01 -5.2166E-01 -2.8648E-01 -2.5579E-01 -2.2571E-01 -1.8586E-01
 -1.5755E-01 -1.1256E-01 -1.0991E-01 -3.1105E-03  8.2854E-03  5.0061E-02
  6.0272E-02  1.4273E-01  1.9492E-01  2.0078E-01
  prteigrs : nnsclo,ikpt=   10   16 max resid (incl. the buffer)=  5.73778E-09
 Non-SCF case, kpt   17 (  0.47059  0.00000  0.00000), residuals and eigenvalues=
  3.97E-13  7.04E-13  6.07E-13  5.68E-13  4.14E-13  8.08E-13  5.48E-13  7.83E-13
  6.66E-13  4.21E-13  5.63E-13  4.72E-13  8.08E-13  4.00E-13  1.22E-09  2.04E-09
 -5.2690E-01 -5.2045E-01 -2.8940E-01 -2.5849E-01 -2.2647E-01 -1.8704E-01
 -1.5839E-01 -1.1025E-01 -1.0884E-01 -2.3726E-03  1.1374E-02  5.1996E-02
  6.0711E-02  1.3553E-01  1.9924E-01  1.9982E-01
  prteigrs : nnsclo,ikpt=   10   17 max resid (incl. the buffer)=  2.03865E-09
 Non-SCF case, kpt   18 (  0.50000  0.00000  0.00000), residuals and eigenvalues=
  4.60E-13  3.57E-13  4.21E-13  2.60E-13  5.19E-13  6.91E-13  6.80E-13  5.32E-13
  4.17E-13  6.50E-13  3.38E-13  7.81E-13  5.64E-13  9.50E-13  6.53E-09  7.12E-11
 -5.2609E-01 -5.2004E-01 -2.9040E-01 -2.5941E-01 -2.2673E-01 -1.8745E-01
 -1.5867E-01 -1.0940E-01 -1.0847E-01 -2.0375E-03  1.2517E-02  5.2647E-02
  6.0829E-02  1.3297E-01  1.9954E-01  2.0082E-01
  prteigrs : nnsclo,ikpt=   10   18 max resid (incl. the buffer)=  6.52991E-09
 Non-SCF case, kpt   19 (  0.48333  0.03333  0.00000), residuals and eigenvalues=
  8.61E-13  9.36E-13  4.23E-13  2.64E-13  8.68E-13  7.06E-13  3.73E-13  9.92E-13
  7.20E-13  8.94E-13  2.34E-13  3.27E-13  9.76E-13  1.41E-12  5.89E-09  1.76E-08
 -5.2589E-01 -5.1988E-01 -2.8982E-01 -2.5956E-01 -2.2650E-01 -1.8803E-01
 -1.5847E-01 -1.1688E-01 -1.0316E-01 -2.0323E-03  1.2918E-02  5.3556E-02
  5.8755E-02  1.3355E-01  2.0295E-01  2.0299E-01
  prteigrs : nnsclo,ikpt=   10   19 max resid (incl. the buffer)=  1.75729E-08
 Non-SCF case, kpt   20 (  0.46667  0.06667  0.00000), residuals and eigenvalues=
  6.31E-13  6.77E-13  4.62E-13  9.28E-13  8.75E-13  8.11E-13  5.55E-13  4.58E-13
  3.91E-13  5.45E-13  3.27E-13  7.42E-13  5.68E-13  5.40E-13  6.65E-08  2.72E-07
 -5.2531E-01 -5.1944E-01 -2.8809E-01 -2.6003E-01 -2.2580E-01 -1.8964E-01
 -1.5803E-01 -1.2694E-01 -9.9200E-02 -2.0108E-03  1.4103E-02  5.3141E-02
  5.6263E-02  1.3525E-01  2.0915E-01  2.1265E-01
  prteigrs : nnsclo,ikpt=   10   20 max resid (incl. the buffer)=  2.72253E-07
 Non-SCF case, kpt   21 (  0.45000  0.10000  0.00000), residuals and eigenvalues=
  7.30E-13  5.90E-13  9.26E-13  5.63E-13  9.92E-13  5.46E-13  2.12E-13  8.95E-13
  3.68E-13  6.74E-13  3.06E-13  5.38E-13  4.15E-13  3.73E-12  2.43E-07  3.71E-06
 -5.2438E-01 -5.1874E-01 -2.8524E-01 -2.6087E-01 -2.2474E-01 -1.9172E-01
 -1.5772E-01 -1.3885E-01 -9.6482E-02 -2.3591E-03  1.6182E-02  4.5621E-02
  6.0292E-02  1.3792E-01  2.1857E-01  2.2703E-01
  prteigrs : nnsclo,ikpt=   10   21 max resid (incl. the buffer)=  3.70724E-06
 Non-SCF case, kpt   22 (  0.43333  0.13333  0.00000), residuals and eigenvalues=
  5.72E-13  4.44E-13  5.82E-13  3.15E-13  8.75E-13  4.26E-13  8.82E-13  4.75E-13
  4.04E-13  9.09E-13  4.15E-13  4.62E-13  7.99E-13  5.43E-13  4.42E-07  1.27E-05
 -5.2316E-01 -5.1783E-01 -2.8133E-01 -2.6216E-01 -2.2342E-01 -1.9367E-01
 -1.5785E-01 -1.5205E-01 -9.4450E-02 -3.3739E-03  1.8966E-02  3.7437E-02
  6.5339E-02  1.4145E-01  2.2982E-01  2.4444E-01
  prteigrs : nnsclo,ikpt=   10   22 max resid (incl. the buffer)=  1.26844E-05
 Non-SCF case, kpt   23 (  0.41667  0.16667  0.00000), residuals and eigenvalues=
  7.64E-13  7.23E-13  9.22E-13  2.28E-13  6.71E-13  8.10E-13  7.97E-13  9.11E-13
  7.50E-13  3.83E-13  4.32E-13  3.00E-13  5.30E-13  5.46E-12  2.53E-05  9.78E-06
 -5.2176E-01 -5.1681E-01 -2.7646E-01 -2.6389E-01 -2.2205E-01 -1.9504E-01
 -1.6590E-01 -1.5863E-01 -9.2653E-02 -5.1870E-03  2.2248E-02  2.9606E-02
  7.0849E-02  1.4578E-01  2.3958E-01  2.5448E-01
  prteigrs : nnsclo,ikpt=   10   23 max resid (incl. the buffer)=  2.52544E-05
 Non-SCF case, kpt   24 (  0.40000  0.20000  0.00000), residuals and eigenvalues=
  7.72E-13  5.34E-13  5.97E-13  8.74E-13  2.61E-13  2.72E-13  3.99E-13  2.60E-13
  6.12E-13  3.10E-13  5.22E-13  4.40E-13  9.08E-13  9.52E-13  2.06E-07  9.01E-07
 -5.2026E-01 -5.1572E-01 -2.7075E-01 -2.6596E-01 -2.2084E-01 -1.9551E-01
 -1.7965E-01 -1.6009E-01 -9.0656E-02 -7.6432E-03  2.2914E-02  2.5850E-02
  7.6289E-02  1.5092E-01  2.3173E-01  2.5713E-01
  prteigrs : nnsclo,ikpt=   10   24 max resid (incl. the buffer)=  9.01196E-07
 Non-SCF case, kpt   25 (  0.38333  0.23333  0.00000), residuals and eigenvalues=
  4.19E-13  6.52E-13  3.47E-13  9.57E-13  4.02E-13  7.64E-13  2.92E-13  5.90E-13
  5.24E-13  8.86E-13  9.22E-13  6.95E-13  6.03E-13  8.57E-13  4.42E-10  2.71E-04
 -5.1880E-01 -5.1466E-01 -2.6811E-01 -2.6434E-01 -2.2027E-01 -1.9506E-01
 -1.9234E-01 -1.6213E-01 -8.8368E-02 -1.0434E-02  1.7759E-02  2.9523E-02
  8.1156E-02  1.5686E-01  2.1631E-01  2.6214E-01
  prteigrs : nnsclo,ikpt=   10   25 max resid (incl. the buffer)=  2.70707E-04
 Non-SCF case, kpt   26 (  0.36667  0.26667  0.00000), residuals and eigenvalues=
  5.39E-13  9.61E-13  7.80E-13  3.11E-13  2.51E-13  9.14E-13  5.88E-13  2.29E-13
  2.58E-13  5.12E-13  8.97E-13  6.39E-13  9.60E-13  2.01E-12  9.23E-11  1.79E-05
 -5.1754E-01 -5.1377E-01 -2.7008E-01 -2.5759E-01 -2.2144E-01 -2.0230E-01
 -1.9398E-01 -1.6446E-01 -8.5997E-02 -1.3231E-02  1.4168E-02  3.2752E-02
  8.4905E-02  1.6352E-01  2.0161E-01  2.6281E-01
  prteigrs : nnsclo,ikpt=   10   26 max resid (incl. the buffer)=  1.79321E-05
 Non-SCF case, kpt   27 (  0.35000  0.30000  0.00000), residuals and eigenvalues=
  8.52E-13  3.55E-13  4.04E-13  3.82E-13  9.13E-13  6.28E-13  3.29E-13  3.98E-13
  6.51E-13  6.38E-13  5.56E-13  4.60E-13  6.27E-13  4.29E-13  1.78E-12  2.06E-06
 -5.1666E-01 -5.1317E-01 -2.7149E-01 -2.5129E-01 -2.2558E-01 -2.0727E-01
 -1.9275E-01 -1.6650E-01 -8.4123E-02 -1.5342E-02  1.2166E-02  3.5050E-02
  8.7237E-02  1.7082E-01  1.8895E-01  2.6471E-01
  prteigrs : nnsclo,ikpt=   10   27 max resid (incl. the buffer)=  2.05512E-06
 Non-SCF case, kpt   28 (  0.33333  0.33333  0.00000), residuals and eigenvalues=
  8.54E-13  3.35E-13  5.28E-13  4.60E-13  3.09E-13  7.49E-13  4.96E-13  4.09E-13
  9.65E-13  5.62E-13  7.61E-13  4.07E-13  6.64E-13  5.50E-13  9.84E-13  1.18E-06
 -5.1634E-01 -5.1296E-01 -2.7205E-01 -2.4814E-01 -2.2866E-01 -2.0831E-01
 -1.9217E-01 -1.6740E-01 -8.3363E-02 -1.6201E-02  1.1489E-02  3.5926E-02
  8.7947E-02  1.7751E-01  1.8025E-01  2.6542E-01
  prteigrs : nnsclo,ikpt=   10   28 max resid (incl. the buffer)=  1.17978E-06
 Non-SCF case, kpt   29 (  0.31667  0.31667  0.00000), residuals and eigenvalues=
  3.67E-13  4.17E-13  4.64E-13  2.56E-13  5.82E-13  9.65E-13  2.70E-13  5.74E-13
  4.98E-13  6.35E-13  4.57E-13  7.26E-13  5.18E-13  9.89E-13  7.73E-13  8.09E-08
 -5.1672E-01 -5.1320E-01 -2.7142E-01 -2.5105E-01 -2.2532E-01 -2.0772E-01
 -1.9287E-01 -1.6634E-01 -8.4216E-02 -1.5357E-02  1.2036E-02  3.4951E-02
  8.7265E-02  1.7221E-01  1.8766E-01  2.6468E-01
  prteigrs : nnsclo,ikpt=   10   29 max resid (incl. the buffer)=  8.08545E-08
 Non-SCF case, kpt   30 (  0.30000  0.30000  0.00000), residuals and eigenvalues=
  4.89E-13  8.68E-13  6.71E-13  4.79E-13  5.55E-13  4.33E-13  7.47E-13  3.43E-13
  4.54E-13  4.11E-13  9.77E-13  6.24E-13  5.14E-13  4.65E-13  1.96E-11  5.72E-05
 -5.1796E-01 -5.1400E-01 -2.6948E-01 -2.5613E-01 -2.1891E-01 -2.0599E-01
 -1.9480E-01 -1.6339E-01 -8.6791E-02 -1.3245E-02  1.3253E-02  3.1976E-02
  8.5216E-02  1.6932E-01  1.9683E-01  2.6296E-01
  prteigrs : nnsclo,ikpt=   10   30 max resid (incl. the buffer)=  5.71611E-05
 Non-SCF case, kpt   31 (  0.28333  0.28333  0.00000), residuals and eigenvalues=
  7.56E-13  6.14E-13  3.86E-13  6.01E-13  9.19E-13  9.46E-13  4.15E-13  4.89E-13
  4.70E-13  6.35E-13  9.41E-13  4.79E-13  3.05E-13  5.59E-12  4.18E-10  4.89E-06
 -5.2018E-01 -5.1535E-01 -2.6610E-01 -2.6042E-01 -2.1365E-01 -2.0193E-01
 -1.9729E-01 -1.5910E-01 -9.0595E-02 -1.0819E-02  1.4784E-02  2.7421E-02
  8.2205E-02  1.6988E-01  2.0625E-01  2.6094E-01
  prteigrs : nnsclo,ikpt=   10   31 max resid (incl. the buffer)=  4.89282E-06
 Non-SCF case, kpt   32 (  0.26667  0.26667  0.00000), residuals and eigenvalues=
  6.99E-13  5.90E-13  3.29E-13  3.00E-13  2.77E-13  8.47E-13  4.49E-13  7.51E-13
  4.82E-13  5.41E-13  2.07E-13  6.72E-13  7.13E-13  2.38E-11  2.65E-08  1.65E-05
 -5.2338E-01 -5.1727E-01 -2.6309E-01 -2.6124E-01 -2.1139E-01 -1.9973E-01
 -1.9476E-01 -1.5404E-01 -9.4935E-02 -9.4558E-03  1.6141E-02  2.2179E-02
  7.8651E-02  1.7331E-01  2.1406E-01  2.5012E-01
  prteigrs : nnsclo,ikpt=   10   32 max resid (incl. the buffer)=  1.65233E-05
 Non-SCF case, kpt   33 (  0.25000  0.25000  0.00000), residuals and eigenvalues=
  4.12E-13  7.49E-13  6.94E-13  3.11E-13  5.71E-13  2.31E-13  4.79E-13  3.77E-13
  4.81E-13  8.14E-13  3.30E-13  4.29E-13  9.00E-13  9.44E-11  9.05E-09  2.16E-05
 -5.2751E-01 -5.1970E-01 -2.6399E-01 -2.5494E-01 -2.1102E-01 -2.0167E-01
 -1.8616E-01 -1.4865E-01 -9.9205E-02 -1.0296E-02  1.6944E-02  1.7328E-02
  7.5012E-02  1.7879E-01  2.1432E-01  2.4962E-01
  prteigrs : nnsclo,ikpt=   10   33 max resid (incl. the buffer)=  2.16274E-05
 Non-SCF case, kpt   34 (  0.23333  0.23333  0.00000), residuals and eigenvalues=
  7.82E-13  4.67E-13  9.33E-13  2.69E-13  5.34E-13  3.68E-13  2.29E-13  6.76E-13
  4.32E-13  4.32E-13  2.70E-13  5.68E-13  5.81E-13  9.72E-11  3.05E-09  2.63E-05
 -5.3246E-01 -5.2257E-01 -2.6319E-01 -2.4732E-01 -2.1178E-01 -2.0288E-01
 -1.7726E-01 -1.4320E-01 -1.0295E-01 -1.3465E-02  1.3497E-02  1.6806E-02
  7.1508E-02  1.8479E-01  2.0704E-01  2.4886E-01
  prteigrs : nnsclo,ikpt=   10   34 max resid (incl. the buffer)=  2.63247E-05
 Non-SCF case, kpt   35 (  0.21667  0.21667  0.00000), residuals and eigenvalues=
  9.13E-13  3.41E-13  2.13E-13  9.82E-13  7.96E-13  8.83E-13  1.96E-13  6.25E-13
  7.87E-13  7.30E-13  4.21E-13  7.60E-13  9.95E-13  1.27E-10  2.38E-10  2.18E-06
 -5.3807E-01 -5.2578E-01 -2.6098E-01 -2.3856E-01 -2.1343E-01 -2.0308E-01
 -1.6853E-01 -1.3792E-01 -1.0602E-01 -1.7810E-02  1.0384E-02  1.5650E-02
  6.8324E-02  1.8583E-01  2.0346E-01  2.4540E-01
  prteigrs : nnsclo,ikpt=   10   35 max resid (incl. the buffer)=  2.18035E-06
 Non-SCF case, kpt   36 (  0.20000  0.20000  0.00000), residuals and eigenvalues=
  5.10E-13  4.15E-13  6.09E-13  2.51E-13  7.73E-13  6.77E-13  3.81E-13  2.48E-13
  5.78E-13  9.68E-13  4.70E-13  4.33E-13  5.43E-13  2.21E-12  7.39E-11  2.21E-08
 -5.4414E-01 -5.2923E-01 -2.5787E-01 -2.2898E-01 -2.1563E-01 -2.0208E-01
 -1.6028E-01 -1.3302E-01 -1.0854E-01 -2.1830E-02  7.3551E-03  1.3538E-02
  6.5277E-02  1.7798E-01  2.0920E-01  2.4220E-01
  prteigrs : nnsclo,ikpt=   10   36 max resid (incl. the buffer)=  2.21358E-08
 Non-SCF case, kpt   37 (  0.18333  0.18333  0.00000), residuals and eigenvalues=
  7.08E-13  7.53E-13  8.94E-13  2.24E-13  3.62E-13  5.33E-13  6.77E-13  6.07E-13
  4.96E-13  5.76E-13  7.08E-13  3.31E-13  8.89E-13  6.20E-13  7.81E-10  2.56E-09
 -5.5047E-01 -5.3284E-01 -2.5469E-01 -2.1913E-01 -2.1763E-01 -1.9953E-01
 -1.5290E-01 -1.2865E-01 -1.1066E-01 -2.4444E-02  4.4191E-03  1.0860E-02
  6.2039E-02  1.6805E-01  2.1726E-01  2.3898E-01
  prteigrs : nnsclo,ikpt=   10   37 max resid (incl. the buffer)=  2.56110E-09
 Non-SCF case, kpt   38 (  0.16667  0.16667  0.00000), residuals and eigenvalues=
  5.40E-13  7.93E-13  4.51E-13  6.50E-13  4.71E-13  7.56E-13  2.96E-13  3.63E-13
  3.65E-13  5.33E-13  4.62E-13  2.72E-13  5.23E-13  7.07E-13  4.53E-08  7.43E-08
 -5.5687E-01 -5.3647E-01 -2.5275E-01 -2.1813E-01 -2.1005E-01 -1.9462E-01
 -1.4707E-01 -1.2494E-01 -1.1220E-01 -2.5153E-02  1.9387E-03  7.9917E-03
  5.8358E-02  1.5827E-01  2.2480E-01  2.3554E-01
  prteigrs : nnsclo,ikpt=   10   38 max resid (incl. the buffer)=  7.42537E-08
 Non-SCF case, kpt   39 (  0.15000  0.15000  0.00000), residuals and eigenvalues=
  5.27E-13  4.43E-13  9.03E-13  5.05E-13  8.89E-13  6.23E-13  6.90E-13  2.49E-13
  7.19E-13  5.70E-13  3.65E-13  6.82E-13  6.04E-13  6.50E-13  8.62E-09  2.61E-09
 -5.6315E-01 -5.4004E-01 -2.5326E-01 -2.1584E-01 -2.0275E-01 -1.8664E-01
 -1.4381E-01 -1.2196E-01 -1.1237E-01 -2.4008E-02  3.7340E-04  5.3915E-03
  5.4094E-02  1.4903E-01  2.3032E-01  2.3172E-01
  prteigrs : nnsclo,ikpt=   10   39 max resid (incl. the buffer)=  8.62451E-09
 Non-SCF case, kpt   40 (  0.13333  0.13333  0.00000), residuals and eigenvalues=
  6.24E-13  6.04E-13  3.33E-13  7.39E-13  2.41E-13  4.93E-13  4.95E-13  3.81E-13
  4.31E-13  4.64E-13  6.73E-13  3.09E-13  4.35E-13  5.60E-13  5.68E-08  3.83E-07
 -5.6916E-01 -5.4345E-01 -2.5623E-01 -2.1074E-01 -1.9674E-01 -1.7656E-01
 -1.4379E-01 -1.1980E-01 -1.1057E-01 -2.1469E-02  2.5616E-04  3.4387E-03
  4.9229E-02  1.4046E-01  2.2751E-01  2.3193E-01
  prteigrs : nnsclo,ikpt=   10   40 max resid (incl. the buffer)=  3.82921E-07
 Non-SCF case, kpt   41 (  0.11667  0.11667  0.00000), residuals and eigenvalues=
  9.47E-13  9.76E-13  2.79E-13  9.88E-13  1.94E-13  7.54E-13  4.26E-13  5.62E-13
  7.85E-13  8.56E-13  9.18E-13  4.28E-13  9.01E-13  7.87E-13  9.48E-08  1.99E-07
 -5.7475E-01 -5.4664E-01 -2.6062E-01 -2.0379E-01 -1.9093E-01 -1.6591E-01
 -1.4625E-01 -1.1845E-01 -1.0744E-01 -1.7817E-02  1.7423E-03  2.4754E-03
  4.3917E-02  1.3259E-01  2.2305E-01  2.2770E-01
  prteigrs : nnsclo,ikpt=   10   41 max resid (incl. the buffer)=  1.98560E-07
 Non-SCF case, kpt   42 (  0.10000  0.10000  0.00000), residuals and eigenvalues=
  5.70E-13  9.48E-13  3.12E-13  6.96E-13  5.07E-13  3.39E-13  3.90E-13  3.89E-13
  3.87E-13  3.85E-13  8.71E-13  4.50E-13  4.82E-13  7.50E-13  3.87E-08  5.22E-08
 -5.7982E-01 -5.4954E-01 -2.6552E-01 -1.9599E-01 -1.8494E-01 -1.5573E-01
 -1.4997E-01 -1.1795E-01 -1.0418E-01 -1.3139E-02  2.6898E-03  4.4446E-03
  3.8358E-02  1.2542E-01  2.1826E-01  2.1855E-01
  prteigrs : nnsclo,ikpt=   10   42 max resid (incl. the buffer)=  5.22315E-08
 Non-SCF case, kpt   43 (  0.08333  0.08333  0.00000), residuals and eigenvalues=
  8.71E-13  4.37E-13  6.33E-13  2.74E-13  7.98E-13  6.70E-13  9.17E-13  5.81E-13
  5.71E-13  7.27E-13  6.20E-13  3.46E-13  7.25E-13  4.26E-13  1.11E-09  1.38E-09
 -5.8426E-01 -5.5208E-01 -2.7032E-01 -1.8811E-01 -1.7867E-01 -1.5392E-01
 -1.4662E-01 -1.1827E-01 -1.0155E-01 -7.4157E-03  4.2183E-03  7.8488E-03
  3.2921E-02  1.1892E-01  2.0637E-01  2.1425E-01
  prteigrs : nnsclo,ikpt=   10   43 max resid (incl. the buffer)=  1.38055E-09
 Non-SCF case, kpt   44 (  0.06667  0.06667  0.00000), residuals and eigenvalues=
  6.53E-13  8.76E-13  9.23E-13  5.35E-13  9.98E-13  8.81E-13  6.17E-13  7.36E-13
  8.41E-13  5.20E-13  9.01E-13  4.19E-13  8.04E-13  4.88E-13  6.54E-10  3.18E-09
 -5.8800E-01 -5.5423E-01 -2.7464E-01 -1.8071E-01 -1.7232E-01 -1.5764E-01
 -1.3903E-01 -1.1938E-01 -9.9773E-02 -8.4616E-04  6.8895E-03  1.1261E-02
  2.7848E-02  1.1308E-01  1.9420E-01  2.1036E-01
  prteigrs : nnsclo,ikpt=   10   44 max resid (incl. the buffer)=  3.17734E-09
 Non-SCF case, kpt   45 (  0.05000  0.05000  0.00000), residuals and eigenvalues=
  4.26E-13  9.64E-13  8.53E-13  9.15E-13  5.43E-13  7.39E-13  9.13E-13  3.92E-13
  8.31E-13  4.46E-13  4.00E-13  6.00E-13  5.15E-13  6.67E-13  2.91E-10  1.63E-08
 -5.9098E-01 -5.5594E-01 -2.7821E-01 -1.7427E-01 -1.6620E-01 -1.6074E-01
 -1.3315E-01 -1.2115E-01 -9.8730E-02  6.0454E-03  1.0308E-02  1.4269E-02
  2.3536E-02  1.0792E-01  1.8318E-01  2.0708E-01
  prteigrs : nnsclo,ikpt=   10   45 max resid (incl. the buffer)=  1.62580E-08
 Non-SCF case, kpt   46 (  0.03333  0.03333  0.00000), residuals and eigenvalues=
  9.51E-13  8.50E-13  5.22E-13  3.46E-13  5.27E-13  3.12E-13  7.86E-13  3.87E-13
  8.16E-13  9.20E-13  2.42E-13  2.79E-13  5.15E-13  2.67E-13  8.63E-10  8.33E-09
 -5.9313E-01 -5.5718E-01 -2.8087E-01 -1.6926E-01 -1.6307E-01 -1.6075E-01
 -1.2905E-01 -1.2325E-01 -9.8193E-02  1.2320E-02  1.3795E-02  1.6577E-02
  2.0226E-02  1.0363E-01  1.7444E-01  2.0454E-01
  prteigrs : nnsclo,ikpt=   10   46 max resid (incl. the buffer)=  8.32993E-09
 Non-SCF case, kpt   47 (  0.01667  0.01667  0.00000), residuals and eigenvalues=
  6.85E-13  9.28E-13  4.27E-13  3.63E-13  6.27E-13  6.86E-13  4.17E-13  6.46E-13
  3.79E-13  7.86E-13  4.80E-13  3.18E-13  4.93E-13  7.45E-13  3.93E-10  1.12E-08
 -5.9443E-01 -5.5793E-01 -2.8252E-01 -1.6604E-01 -1.6446E-01 -1.5676E-01
 -1.2665E-01 -1.2508E-01 -9.7939E-02  1.6459E-02  1.6865E-02  1.8043E-02
  1.8144E-02  1.0065E-01  1.6882E-01  2.0290E-01
  prteigrs : nnsclo,ikpt=   10   47 max resid (incl. the buffer)=  1.12412E-08
 Non-SCF case, kpt   48 (  0.00000  0.00000  0.00000), residuals and eigenvalues=
  6.33E-13  5.13E-13  4.54E-13  3.68E-13  9.39E-13  6.06E-13  4.75E-13  7.02E-13
  4.78E-13  3.14E-13  3.53E-13  5.87E-13  8.16E-13  5.13E-13  5.38E-09  2.22E-07
 -5.9486E-01 -5.5818E-01 -2.8307E-01 -1.6494E-01 -1.6494E-01 -1.5525E-01
 -1.2586E-01 -1.2586E-01 -9.7880E-02  1.7429E-02  1.7429E-02  1.8533E-02
  1.8533E-02  9.9554E-02  1.6688E-01  2.0233E-01
  prteigrs : nnsclo,ikpt=   10   48 max resid (incl. the buffer)=  2.21547E-07


 scprqt:  WARNING -
  nstep=   10 was not enough non-SCF iterations to converge;
  maximum residual=  1.266E-10 exceeds tolwfr=  1.000E-12

 Integrated electronic density in atomic spheres:
 ------------------------------------------------
 Atom  Sphere_radius  Integrated_density
    1        2.00000          2.91239893
    2        2.00000          3.82009880
    3        2.00000          3.82009880
================================================================================

 ----iterations are completed or convergence reached----

 Mean square residual over all n,k,spin=   6.2066E-07; max=  2.7071E-04
 reduced coordinates (array xred) for    3 atoms
       0.000000000000      0.000000000000      0.000000000000
       0.666666666667      0.333333333333      0.162984781920
       0.666666666667      0.333333333333     -0.162984781920

 cartesian coordinates (angstrom) at end:
    1      0.00000000000000     0.00000000000000     0.00000000000000
    2      1.59293119411085     0.91967925371574     1.64840344945643
    3      1.59293119411085     0.91967925371574    -1.64840344945643
 length scales=  6.020407410800  6.020407410800 19.112404479000 bohr
              =  3.185862388222  3.185862388222 10.113848851640 angstroms
 prteigrs : about to open file mos2_5o_DS2_EIG
 Eigenvalues (   eV  ) for nkpt=  48  k points:
 kpt#   1, nband= 16, wtk=  1.00000, kpt=  0.0000  0.0000  0.0000 (reduced coord)
 -16.18703  -15.18875   -7.70274   -4.48830   -4.48830   -4.22456   -3.42480   -3.42480
  -2.66345    0.47427    0.47427    0.50430    0.50430    2.70899    4.54103    5.50578
 kpt#   2, nband= 16, wtk=  1.00000, kpt=  0.0294  0.0000  0.0000 (reduced coord)
 -16.17473  -15.18174   -7.68708   -4.51935   -4.47489   -4.26718   -3.44715   -3.40354
  -2.66532    0.44685    0.45713    0.49051    0.49424    2.73993    4.59575    5.52182
 kpt#   3, nband= 16, wtk=  1.00000, kpt=  0.0588  0.0000  0.0000 (reduced coord)
 -16.13803  -15.16069   -7.64077   -4.61042   -4.43585   -4.37964   -3.51050   -3.35609
  -2.67219    0.32874    0.37318    0.44973    0.55142    2.82377    4.75413    5.56784
 kpt#   4, nband= 16, wtk=  1.00000, kpt=  0.0882  0.0000  0.0000 (reduced coord)
 -16.07733  -15.12572   -7.56584   -4.75151   -4.53516   -4.37021   -3.60983   -3.31406
  -2.68830    0.15180    0.28275    0.38718    0.63920    2.94327    4.99816    5.63905
 kpt#   5, nband= 16, wtk=  1.00000, kpt=  0.1176  0.0000  0.0000 (reduced coord)
 -15.99344  -15.07734   -7.46560   -4.93391   -4.71514   -4.27896   -3.73416   -3.30221
  -2.71915   -0.04031    0.20766    0.30914    0.75016    3.08527    5.29734    5.73061
 kpt#   6, nband= 16, wtk=  1.00000, kpt=  0.1471  0.0000  0.0000 (reduced coord)
 -15.88814  -15.01698   -7.34618   -5.14489   -4.91286   -4.16795   -3.87672   -3.33551
  -2.77315   -0.21715    0.17038    0.21993    0.87250    3.24358    5.60560    5.83625
 kpt#   7, nband= 16, wtk=  1.00000, kpt=  0.1765  0.0000  0.0000 (reduced coord)
 -15.76328  -14.94550   -7.21674   -5.37130   -5.12327   -4.03938   -4.02930   -3.41322
  -2.85497   -0.35523    0.12805    0.18717    0.99803    3.41648    5.85978    5.94746
 kpt#   8, nband= 16, wtk=  1.00000, kpt=  0.2059  0.0000  0.0000 (reduced coord)
 -15.62115  -14.86463   -7.09222   -5.59543   -5.34505   -4.18504   -3.89749   -3.52550
  -2.96285   -0.43932    0.04060    0.25765    1.11943    3.60311    5.99077    6.04970
 kpt#   9, nband= 16, wtk=  1.00000, kpt=  0.2353  0.0000  0.0000 (reduced coord)
 -15.46502  -14.77622   -6.99706   -5.79707   -5.57610   -4.33847   -3.74911   -3.65630
  -3.08472   -0.46595   -0.03779    0.37179    1.23117    3.80262    5.97222    6.11780
 kpt#  10, nband= 16, wtk=  1.00000, kpt=  0.2647  0.0000  0.0000 (reduced coord)
 -15.29852  -14.68250   -6.96541   -5.94688   -5.81267   -4.48464   -3.79029   -3.59970
  -3.19942   -0.43996   -0.09929    0.51809    1.33023    4.01356    5.83188    6.11644
 kpt#  11, nband= 16, wtk=  1.00000, kpt=  0.2941  0.0000  0.0000 (reduced coord)
 -15.12616  -14.58652   -7.02487   -6.04939   -6.02620   -4.61952   -3.91606   -3.45490
  -3.28401   -0.37402   -0.14054    0.68249    1.41551    4.23134    5.59919    6.02717
 kpt#  12, nband= 16, wtk=  1.00000, kpt=  0.3235  0.0000  0.0000 (reduced coord)
 -14.95349  -14.49109   -7.16134   -6.27889   -6.05339   -4.74107   -4.02658   -3.32210
  -3.31984   -0.27535   -0.16063    0.85166    1.48637    4.44948    5.29765    5.88341
 kpt#  13, nband= 16, wtk=  1.00000, kpt=  0.3529  0.0000  0.0000 (reduced coord)
 -14.78716  -14.40011   -7.33496   -6.49332   -6.06649   -4.84727   -4.11911   -3.30144
  -3.20705   -0.15853   -0.15548    1.01283    1.54285    4.63487    4.97980    5.73327
 kpt#  14, nband= 16, wtk=  1.00000, kpt=  0.3824  0.0000  0.0000 (reduced coord)
 -14.63425  -14.31756   -7.51216   -6.68357   -6.08602   -4.93608   -4.19270   -3.23728
  -3.11254   -0.13882   -0.02413    1.15655    1.58681    4.50141    4.95930    5.60805
 kpt#  15, nband= 16, wtk=  1.00000, kpt=  0.4118  0.0000  0.0000 (reduced coord)
 -14.50295  -14.24801   -7.67061   -6.84152   -6.11342   -5.00653   -4.24793   -3.14915
  -3.04061   -0.11164    0.10917    1.27586    1.61861    4.17232    5.13891    5.51756
 kpt#  16, nband= 16, wtk=  1.00000, kpt=  0.4412  0.0000  0.0000 (reduced coord)
 -14.40174  -14.19518   -7.79550   -6.96047   -6.14201   -5.05764   -4.28708   -3.06286
  -2.99068   -0.08464    0.22546    1.36224    1.64008    3.88387    5.30412    5.46349
 kpt#  17, nband= 16, wtk=  1.00000, kpt=  0.4706  0.0000  0.0000 (reduced coord)
 -14.33755  -14.16216   -7.87492   -7.03399   -6.16247   -5.08952   -4.31001   -2.99996
  -2.96157   -0.06456    0.30951    1.41489    1.65202    3.68796    5.42157    5.43731
 kpt#  18, nband= 16, wtk=  1.00000, kpt=  0.5000  0.0000  0.0000 (reduced coord)
 -14.31561  -14.15089   -7.90230   -7.05895   -6.16963   -5.10080   -4.31771   -2.97692
  -2.95173   -0.05544    0.34061    1.43259    1.65525    3.61817    5.42981    5.46450
 kpt#  19, nband= 16, wtk=  1.00000, kpt=  0.4833  0.0333  0.0000 (reduced coord)
 -14.31031  -14.14666   -7.88635   -7.06287   -6.16341   -5.11657   -4.31216   -3.18046
  -2.80725   -0.05530    0.35153    1.45734    1.59880    3.63418    5.52267    5.52369
 kpt#  20, nband= 16, wtk=  1.00000, kpt=  0.4667  0.0667  0.0000 (reduced coord)
 -14.29442  -14.13457   -7.83923   -7.07566   -6.14446   -5.16041   -4.30031   -3.45428
  -2.69936   -0.05472    0.38375    1.44605    1.53098    3.68025    5.69117    5.78646
 kpt#  21, nband= 16, wtk=  1.00000, kpt=  0.4500  0.1000  0.0000 (reduced coord)
 -14.26903  -14.11553   -7.76164   -7.09861   -6.11540   -5.21700   -4.29173   -3.77828
  -2.62541   -0.06419    0.44033    1.24141    1.64063    3.75286    5.94748    6.17769
 kpt#  22, nband= 16, wtk=  1.00000, kpt=  0.4333  0.1333  0.0000 (reduced coord)
 -14.23594  -14.09093   -7.65532   -7.13367   -6.07963   -5.27011   -4.29528   -4.13759
  -2.57011   -0.09181    0.51609    1.01872    1.77798    3.84911    6.25382    6.65146
 kpt#  23, nband= 16, wtk=  1.00000, kpt=  0.4167  0.1667  0.0000 (reduced coord)
 -14.19773  -14.06314   -7.52281   -7.18090   -6.04219   -5.30741   -4.51446   -4.31649
  -2.52120   -0.14114    0.60539    0.80561    1.92790    3.96696    6.51934    6.92486
 kpt#  24, nband= 16, wtk=  1.00000, kpt=  0.4000  0.2000  0.0000 (reduced coord)
 -14.15700  -14.03342   -7.36738   -7.23719   -6.00947   -5.32000   -4.88865   -4.35626
  -2.46686   -0.20798    0.62353    0.70343    2.07593    4.10687    6.30558    6.99692
 kpt#  25, nband= 16, wtk=  1.00000, kpt=  0.3833  0.2333  0.0000 (reduced coord)
 -14.11722  -14.00464   -7.29574   -7.19317   -5.99393   -5.30795   -5.23392   -4.41174
  -2.40461   -0.28393    0.48326    0.80337    2.20838    4.26836    5.88613    7.13329
 kpt#  26, nband= 16, wtk=  1.00000, kpt=  0.3667  0.2667  0.0000 (reduced coord)
 -14.08306  -13.98050   -7.34928   -7.00945   -6.02579   -5.50475   -5.27839   -4.47522
  -2.34010   -0.36004    0.38552    0.89124    2.31038    4.44949    5.48612    7.15150
 kpt#  27, nband= 16, wtk=  1.00000, kpt=  0.3500  0.3000  0.0000 (reduced coord)
 -14.05908  -13.96402   -7.38770   -6.83788   -6.13830   -5.64008   -5.24497   -4.53063
  -2.28911   -0.41748    0.33105    0.95375    2.37383    4.64813    5.14151    7.20323
 kpt#  28, nband= 16, wtk=  1.00000, kpt=  0.3333  0.3333  0.0000 (reduced coord)
 -14.05026  -13.95842   -7.40280   -6.75221   -6.22225   -5.66836   -5.22909   -4.55508
  -2.26842   -0.44084    0.31263    0.97758    2.39316    4.83029    4.90491    7.22251
 kpt#  29, nband= 16, wtk=  1.00000, kpt=  0.3167  0.3167  0.0000 (reduced coord)
 -14.06055  -13.96495   -7.38566   -6.83146   -6.13129   -5.65225   -5.24836   -4.52635
  -2.29164   -0.41788    0.32752    0.95105    2.37460    4.68619    5.10658    7.20242
 kpt#  30, nband= 16, wtk=  1.00000, kpt=  0.3000  0.3000  0.0000 (reduced coord)
 -14.09453  -13.98660   -7.33290   -6.96970   -5.95683   -5.60518   -5.30076   -4.44616
  -2.36171   -0.36040    0.36063    0.87011    2.31885    4.60740    5.35597    7.15541
 kpt#  31, nband= 16, wtk=  1.00000, kpt=  0.2833  0.2833  0.0000 (reduced coord)
 -14.15477  -14.02329   -7.24097   -7.08626   -5.81379   -5.49473   -5.36845   -4.32923
  -2.46523   -0.29440    0.40229    0.74616    2.23692    4.62262    5.61233    7.10042
 kpt#  32, nband= 16, wtk=  1.00000, kpt=  0.2667  0.2667  0.0000 (reduced coord)
 -14.24176  -14.07557   -7.15909   -7.10876   -5.75227   -5.43495   -5.29968   -4.19178
  -2.58330   -0.25730    0.43923    0.60353    2.14020    4.71605    5.82489    6.80617
 kpt#  33, nband= 16, wtk=  1.00000, kpt=  0.2500  0.2500  0.0000 (reduced coord)
 -14.35420  -14.14174   -7.18346   -6.93715   -5.74220   -5.48783   -5.06573   -4.04484
  -2.69950   -0.28017    0.46107    0.47153    2.04118    4.86520    5.83189    6.79262
 kpt#  34, nband= 16, wtk=  1.00000, kpt=  0.2333  0.2333  0.0000 (reduced coord)
 -14.48909  -14.21980   -7.16168   -6.72995   -5.76292   -5.52061   -4.82350   -3.89660
  -2.80148   -0.36641    0.36729    0.45732    1.94583    5.02832    5.63388    6.77182
 kpt#  35, nband= 16, wtk=  1.00000, kpt=  0.2167  0.2167  0.0000 (reduced coord)
 -14.64169  -14.30712   -7.10164   -6.49148   -5.80777   -5.52621   -4.58586   -3.75304
  -2.88507   -0.48464    0.28255    0.42585    1.85920    5.05656    5.53646    6.67776
 kpt#  36, nband= 16, wtk=  1.00000, kpt=  0.2000  0.2000  0.0000 (reduced coord)
 -14.80692  -14.40112   -7.01690   -6.23097   -5.86752   -5.49896   -4.36144   -3.61966
  -2.95340   -0.59403    0.20014    0.36839    1.77627    4.84317    5.69254    6.59065
 kpt#  37, nband= 16, wtk=  1.00000, kpt=  0.1833  0.1833  0.0000 (reduced coord)
 -14.97912  -14.49920   -6.93038   -5.96297   -5.92203   -5.42940   -4.16055   -3.50075
  -3.01128   -0.66515    0.12025    0.29551    1.68816    4.57301    5.91182    6.50300
 kpt#  38, nband= 16, wtk=  1.00000, kpt=  0.1667  0.1667  0.0000 (reduced coord)
 -15.15329  -14.59801   -6.87764   -5.93569   -5.71564   -5.29576   -4.00198   -3.39971
  -3.05319   -0.68444    0.05276    0.21746    1.58802    4.30669    6.11703    6.40929
 kpt#  39, nband= 16, wtk=  1.00000, kpt=  0.1500  0.1500  0.0000 (reduced coord)
 -15.32416  -14.69516   -6.89154   -5.87326   -5.51715   -5.07867   -3.91319   -3.31878
  -3.05779   -0.65328    0.01016    0.14671    1.47197    4.05522    6.26738    6.30541
 kpt#  40, nband= 16, wtk=  1.00000, kpt=  0.1333  0.1333  0.0000 (reduced coord)
 -15.48767  -14.78815   -6.97240   -5.73442   -5.35347   -4.80436   -3.91260   -3.25979
  -3.00885   -0.58420    0.00697    0.09357    1.33958    3.82208    6.19093    6.31108
 kpt#  41, nband= 16, wtk=  1.00000, kpt=  0.1167  0.1167  0.0000 (reduced coord)
 -15.63979  -14.87495   -7.09186   -5.54544   -5.19547   -4.51466   -3.97959   -3.22328
  -2.92346   -0.48481    0.04741    0.06736    1.19505    3.60806    6.06947    6.19593
 kpt#  42, nband= 16, wtk=  1.00000, kpt=  0.1000  0.1000  0.0000 (reduced coord)
 -15.77776  -14.95370   -7.22529   -5.33307   -5.03241   -4.23759   -4.08079   -3.20970
  -2.83478   -0.35752    0.07319    0.12094    1.04378    3.41282    5.93911    5.94702
 kpt#  43, nband= 16, wtk=  1.00000, kpt=  0.0833  0.0833  0.0000 (reduced coord)
 -15.89854  -15.02289   -7.35586   -5.11867   -4.86173   -4.18832   -3.98964   -3.21817
  -2.76325   -0.20179    0.11479    0.21358    0.89582    3.23607    5.61563    5.83003
 kpt#  44, nband= 16, wtk=  1.00000, kpt=  0.0667  0.0667  0.0000 (reduced coord)
 -16.00035  -15.08139   -7.47328   -4.91746   -4.68909   -4.28951   -3.78329   -3.24844
  -2.71496   -0.02303    0.18747    0.30644    0.75778    3.07708    5.28448    5.72428
 kpt#  45, nband= 16, wtk=  1.00000, kpt=  0.0500  0.0500  0.0000 (reduced coord)
 -16.08126  -15.12783   -7.57056   -4.74205   -4.52262   -4.37405   -3.62316   -3.29665
  -2.68659    0.16450    0.28049    0.38828    0.64046    2.93676    4.98465    5.63485
 kpt#  46, nband= 16, wtk=  1.00000, kpt=  0.0333  0.0333  0.0000 (reduced coord)
 -16.13980  -15.16166   -7.64299   -4.60577   -4.43747   -4.37418   -3.51157   -3.35379
  -2.67196    0.33524    0.37539    0.45109    0.55038    2.82000    4.74677    5.56570
 kpt#  47, nband= 16, wtk=  1.00000, kpt=  0.0167  0.0167  0.0000 (reduced coord)
 -16.17516  -15.18194   -7.68765   -4.51814   -4.47524   -4.26561   -3.44622   -3.40358
  -2.66505    0.44786    0.45891    0.49098    0.49373    2.73885    4.59377    5.52125
 kpt#  48, nband= 16, wtk=  1.00000, kpt=  0.0000  0.0000  0.0000 (reduced coord)
 -16.18703  -15.18875   -7.70274   -4.48830   -4.48830   -4.22456   -3.42480   -3.42480
  -2.66345    0.47427    0.47427    0.50430    0.50430    2.70899    4.54103    5.50578

== END DATASET(S) ==============================================================
================================================================================
  
 -outvars: echo values of variables after computation  --------
            acell      6.0204074108E+00  6.0204074108E+00  1.9112404479E+01 Bohr
              amu      9.59400000E+01  3.20660000E+01
           diemac      1.20000000E+01
             ecut      1.70000000E+01 Hartree
           enunit1          0
           enunit2          1
           etotal1    -3.2166212385E+01
            fcart1     1.4908433042E-29  8.6073878303E-30 -0.0000000000E+00
                      -7.4542165212E-30 -4.3036939151E-30 -1.1446903588E-02
                      -7.4542165212E-30 -4.3036939151E-30  1.1446903588E-02
-          fftalg         112
           getden1          0
           getden2         -1
             iscf1          7
             iscf2         -2
           istwfk2       2    0    0    0    0    0    0    0    0    0
                         0    0    0    0    0    0    0    3    0    0
                         0    0    0    0    0    0    0    0    0    0
                         0    0    0    0    0    0    0    0    0    0
                         0    0    0    0    0    0    0    2
           jdtset        1    2
              kpt1     0.00000000E+00  0.00000000E+00  1.25000000E-01
                       2.50000000E-01  0.00000000E+00  1.25000000E-01
                       5.00000000E-01  0.00000000E+00  1.25000000E-01
                       2.50000000E-01  2.50000000E-01  1.25000000E-01
                       0.00000000E+00  0.00000000E+00  3.75000000E-01
                       2.50000000E-01  0.00000000E+00  3.75000000E-01
                       5.00000000E-01  0.00000000E+00  3.75000000E-01
                       2.50000000E-01  2.50000000E-01  3.75000000E-01
              kpt2     0.00000000E+00  0.00000000E+00  0.00000000E+00
                       2.94117647E-02  0.00000000E+00  0.00000000E+00
                       5.88235294E-02  0.00000000E+00  0.00000000E+00
                       8.82352941E-02  0.00000000E+00  0.00000000E+00
                       1.17647059E-01  0.00000000E+00  0.00000000E+00
                       1.47058824E-01  0.00000000E+00  0.00000000E+00
                       1.76470588E-01  0.00000000E+00  0.00000000E+00
                       2.05882353E-01  0.00000000E+00  0.00000000E+00
                       2.35294118E-01  0.00000000E+00  0.00000000E+00
                       2.64705882E-01  0.00000000E+00  0.00000000E+00
                       2.94117647E-01  0.00000000E+00  0.00000000E+00
                       3.23529412E-01  0.00000000E+00  0.00000000E+00
                       3.52941176E-01  0.00000000E+00  0.00000000E+00
                       3.82352941E-01  0.00000000E+00  0.00000000E+00
                       4.11764706E-01  0.00000000E+00  0.00000000E+00
                       4.41176471E-01  0.00000000E+00  0.00000000E+00
                       4.70588235E-01  0.00000000E+00  0.00000000E+00
                       5.00000000E-01  0.00000000E+00  0.00000000E+00
                       4.83333333E-01  3.33333333E-02  0.00000000E+00
                       4.66666667E-01  6.66666667E-02  0.00000000E+00
                       4.50000000E-01  1.00000000E-01  0.00000000E+00
                       4.33333333E-01  1.33333333E-01  0.00000000E+00
                       4.16666667E-01  1.66666667E-01  0.00000000E+00
                       4.00000000E-01  2.00000000E-01  0.00000000E+00
                       3.83333333E-01  2.33333333E-01  0.00000000E+00
                       3.66666667E-01  2.66666667E-01  0.00000000E+00
                       3.50000000E-01  3.00000000E-01  0.00000000E+00
                       3.33333333E-01  3.33333333E-01  0.00000000E+00
                       3.16666667E-01  3.16666667E-01  0.00000000E+00
                       3.00000000E-01  3.00000000E-01  0.00000000E+00
                       2.83333333E-01  2.83333333E-01  0.00000000E+00
                       2.66666667E-01  2.66666667E-01  0.00000000E+00
                       2.50000000E-01  2.50000000E-01  0.00000000E+00
                       2.33333333E-01  2.33333333E-01  0.00000000E+00
                       2.16666667E-01  2.16666667E-01  0.00000000E+00
                       2.00000000E-01  2.00000000E-01  0.00000000E+00
                       1.83333333E-01  1.83333333E-01  0.00000000E+00
                       1.66666667E-01  1.66666667E-01  0.00000000E+00
                       1.50000000E-01  1.50000000E-01  0.00000000E+00
                       1.33333333E-01  1.33333333E-01  0.00000000E+00
                       1.16666667E-01  1.16666667E-01  0.00000000E+00
                       1.00000000E-01  1.00000000E-01  0.00000000E+00
                       8.33333333E-02  8.33333333E-02  0.00000000E+00
                       6.66666667E-02  6.66666667E-02  0.00000000E+00
                       5.00000000E-02  5.00000000E-02  0.00000000E+00
                       3.33333333E-02  3.33333333E-02  0.00000000E+00
                       1.66666667E-02  1.66666667E-02  0.00000000E+00
                       0.00000000E+00  0.00000000E+00  0.00000000E+00
           kptopt1          1
           kptopt2         -3
         kptrlatt        4    0    0      0    4    0      0    0    4
          kptrlen1     2.40816296E+01
          kptrlen2     3.00000000E+01
P           mkmem1          8
P           mkmem2         48
            natom           3
            nband1         10
            nband2         16
           nbdbuf1          0
           nbdbuf2          2
           ndtset           2
            ngfft          24      24      72
             nkpt1          8
             nkpt2         48
            nstep          10
             nsym          12
           ntypat           2
              occ      2.000000  2.000000  2.000000  2.000000  2.000000  2.000000
                       2.000000  2.000000  2.000000  0.000000
            rprim      1.0000000000E+00  0.0000000000E+00  0.0000000000E+00
                      -5.0000000000E-01  8.6602540378E-01  0.0000000000E+00
                       0.0000000000E+00  0.0000000000E+00  1.0000000000E+00
           shiftk1     0.00000000E+00  0.00000000E+00  5.00000000E-01
           shiftk2     5.00000000E-01  5.00000000E-01  5.00000000E-01
          spgroup         187
           strten1     7.1174024848E-05  7.1174024903E-05  1.8137384109E-04
                       0.0000000000E+00  0.0000000000E+00  0.0000000000E+00
           symrel      1  0  0   0  1  0   0  0  1       0 -1  0  -1  0  0   0  0 -1
                      -1 -1  0   1  0  0   0  0 -1      -1  0  0   1  1  0   0  0  1
                       0  1  0  -1 -1  0   0  0  1       1  1  0   0 -1  0   0  0 -1
                       1  0  0   0  1  0   0  0 -1       0 -1  0  -1  0  0   0  0  1
                      -1 -1  0   1  0  0   0  0  1      -1  0  0   1  1  0   0  0 -1
                       0  1  0  -1 -1  0   0  0 -1       1  1  0   0 -1  0   0  0  1
           toldfe1     1.00000000E-06 Hartree
           toldfe2     0.00000000E+00 Hartree
           tolwfr1     0.00000000E+00
           tolwfr2     1.00000000E-12
            typat      1  2  2
              wtk1       0.03125    0.18750    0.09375    0.18750    0.03125    0.18750
                         0.09375    0.18750
              wtk2       1.00000    1.00000    1.00000    1.00000    1.00000    1.00000
                         1.00000    1.00000    1.00000    1.00000    1.00000    1.00000
                         1.00000    1.00000    1.00000    1.00000    1.00000    1.00000
                         1.00000    1.00000    1.00000    1.00000    1.00000    1.00000
                         1.00000    1.00000    1.00000    1.00000    1.00000    1.00000
                         1.00000    1.00000    1.00000    1.00000    1.00000    1.00000
                         1.00000    1.00000    1.00000    1.00000    1.00000    1.00000
                         1.00000    1.00000    1.00000    1.00000    1.00000    1.00000
           xangst      0.0000000000E+00  0.0000000000E+00  0.0000000000E+00
                       1.5929311941E+00  9.1967925372E-01  1.6484034495E+00
                       1.5929311941E+00  9.1967925372E-01 -1.6484034495E+00
            xcart      0.0000000000E+00  0.0000000000E+00  0.0000000000E+00
                       3.0102037054E+00  1.7379419196E+00  3.1150310760E+00
                       3.0102037054E+00  1.7379419196E+00 -3.1150310760E+00
             xred      0.0000000000E+00  0.0000000000E+00  0.0000000000E+00
                       6.6666666667E-01  3.3333333333E-01  1.6298478192E-01
                       6.6666666667E-01  3.3333333333E-01 -1.6298478192E-01
            znucl       42.00000   16.00000

================================================================================

- Total cpu        time (s,m,h):        180.8        3.01      0.050
- Total wall clock time (s,m,h):         63.9        1.07      0.018
-
- For major independent code sections, cpu and wall times (sec),
-  as well as % of the time and number of calls for node 0-
-<BEGIN_TIMER mpi_nprocs = 1, omp_nthreads = 1, mpi_rank = 0>
- cpu_time =          180.8, wall_time =           63.9
-
- routine                        cpu     %       wall     %      number of calls  Gflops    Speedup Efficacity
-                                                                  (-1=no count)
- fourwf%(pot)                  96.699  53.5     33.571  52.5          34749      -1.00        2.88       2.88
- nonlop(apply)                 41.812  23.1     14.510  22.7          34749      -1.00        2.88       2.88
- projbd                        23.432  13.0      8.600  13.5          52730      -1.00        2.72       2.72
- vtowfk(ssdiag)                 5.412   3.0      1.642   2.6             -1      -1.00        3.30       3.30
- getghc-other                   1.900   1.1      0.629   1.0             -1      -1.00        3.02       3.02
- fourwf%(den)                   1.524   0.8      0.411   0.6            720      -1.00        3.71       3.71
- pspini                         1.056   0.6      1.054   1.6              2      -1.00        1.00       1.00
- others (106)                   1.348   0.7      0.671   1.0             -1      -1.00        2.01       2.01
-<END_TIMER>
-
- subtotal                     173.184  95.8     61.088  95.6                                  2.83       2.83

- For major independent code sections, cpu and wall times (sec),
- as well as % of the total time and number of calls 

-<BEGIN_TIMER mpi_nprocs = 1, omp_nthreads = 1, mpi_rank = world>
- cpu_time =         180.8, wall_time =          63.9
-
- routine                         cpu     %       wall     %      number of calls Gflops    Speedup Efficacity
-                                                                  (-1=no count)
- fourwf%(pot)                  96.699  53.5     33.571  52.5          34749      -1.00        2.88       2.88
- nonlop(apply)                 41.812  23.1     14.510  22.7          34749      -1.00        2.88       2.88
- projbd                        23.432  13.0      8.600  13.5          52730      -1.00        2.72       2.72
- vtowfk(ssdiag)                 5.412   3.0      1.642   2.6             -1      -1.00        3.30       3.30
- getghc-other                   1.900   1.1      0.629   1.0             -1      -1.00        3.02       3.02
- fourwf%(den)                   1.524   0.8      0.411   0.6            720      -1.00        3.71       3.71
- pspini                         1.056   0.6      1.054   1.6              2      -1.00        1.00       1.00
- others (106)                   1.348   0.7      0.671   1.0             -1      -1.00        2.01       2.01
-<END_TIMER>

- subtotal                     173.184  95.8     61.088  95.6                                  2.83       2.83

================================================================================

 Suggested references for the acknowledgment of ABINIT usage.

 The users of ABINIT have little formal obligations with respect to the ABINIT group
 (those specified in the GNU General Public License, http://www.gnu.org/copyleft/gpl.txt).
 However, it is common practice in the scientific literature,
 to acknowledge the efforts of people that have made the research possible.
 In this spirit, please find below suggested citations of work written by ABINIT developers,
 corresponding to implementations inside of ABINIT that you have used in the present run.
 Note also that it will be of great value to readers of publications presenting these results,
 to read papers enabling them to understand the theoretical formalism and details
 of the ABINIT implementation.
 For information on why they are suggested, see also http://www.abinit.org/about/?text=acknowledgments.
-
- [1] Recent developments in the ABINIT software package.
- Computer Phys. Comm. 205, 106 (2016).
- X.Gonze, F.Jollet, F.Abreu Araujo, D.Adams, B.Amadon, T.Applencourt,
- C.Audouze, J.-M.Beuken, J.Bieder, A.Bokhanchuk, E.Bousquet, F.Bruneval
- D.Caliste, M.Cote, F.Dahm, F.Da Pieve, M.Delaveau, M.Di Gennaro,
- B.Dorado, C.Espejo, G.Geneste, L.Genovese, A.Gerossier, M.Giantomassi,
- Y.Gillet, D.R.Hamann, L.He, G.Jomard, J.Laflamme Janssen, S.Le Roux,
- A.Levitt, A.Lherbier, F.Liu, I.Lukacevic, A.Martin, C.Martins,
- M.J.T.Oliveira, S.Ponce, Y.Pouillon, T.Rangel, G.-M.Rignanese,
- A.H.Romero, B.Rousseau, O.Rubel, A.A.Shukri, M.Stankovski, M.Torrent,
- M.J.Van Setten, B.Van Troeye, M.J.Verstraete, D.Waroquier, J.Wiktor,
- B.Xue, A.Zhou, J.W.Zwanziger.
- Comment : the fourth generic paper describing the ABINIT project.
- Note that a version of this paper, that is not formatted for Computer Phys. Comm. 
- is available at http://www.abinit.org/about/ABINIT16.pdf .
- The licence allows the authors to put it on the Web.
-
- [2] Optimized norm-conserving Vanderbilt pseudopotentials.
- D.R. Hamann, Phys. Rev. B 88, 085117 (2013).
- Comment: Some pseudopotential generated using the ONCVPSP code were used.
-
- [3] ABINIT : First-principles approach of materials and nanosystem properties.
- Computer Phys. Comm. 180, 2582-2615 (2009).
- X. Gonze, B. Amadon, P.-M. Anglade, J.-M. Beuken, F. Bottin, P. Boulanger, F. Bruneval,
- D. Caliste, R. Caracas, M. Cote, T. Deutsch, L. Genovese, Ph. Ghosez, M. Giantomassi
- S. Goedecker, D.R. Hamann, P. Hermet, F. Jollet, G. Jomard, S. Leroux, M. Mancini, S. Mazevet,
- M.J.T. Oliveira, G. Onida, Y. Pouillon, T. Rangel, G.-M. Rignanese, D. Sangalli, R. Shaltaf,
- M. Torrent, M.J. Verstraete, G. Zerah, J.W. Zwanziger
- Comment : the third generic paper describing the ABINIT project.
- Note that a version of this paper, that is not formatted for Computer Phys. Comm. 
- is available at http://www.abinit.org/about/ABINIT_CPC_v10.pdf .
- The licence allows the authors to put it on the Web.
-
- [4] A brief introduction to the ABINIT software package.
- Z. Kristallogr. 220, 558-562 (2005).
- X. Gonze, G.-M. Rignanese, M. Verstraete, J.-M. Beuken, Y. Pouillon, R. Caracas, F. Jollet,
- M. Torrent, G. Zerah, M. Mikami, Ph. Ghosez, M. Veithen, J.-Y. Raty, V. Olevano, F. Bruneval,
- L. Reining, R. Godby, G. Onida, D.R. Hamann, and D.C. Allan.
- Comment : the second generic paper describing the ABINIT project. Note that this paper
- should be cited especially if you are using the GW part of ABINIT, as several authors
- of this part are not in the list of authors of the first or third paper.
- The .pdf of the latter paper is available at http://www.abinit.org/about/zfk_0505-06_558-562.pdf.
- Note that it should not redistributed (Copyright by Oldenburg Wissenshaftverlag,
- the licence allows the authors to put it on the Web).
-
- And optionally:
-
- [5] First-principles computation of material properties : the ABINIT software project. 
- X. Gonze, J.-M. Beuken, R. Caracas, F. Detraux, M. Fuchs, G.-M. Rignanese, L. Sindic,
- M. Verstraete, G. Zerah, F. Jollet, M. Torrent, A. Roy, M. Mikami, Ph. Ghosez, J.-Y. Raty, D.C. Allan.
- Computational Materials Science 25, 478-492 (2002). http://dx.doi.org/10.1016/S0927-0256(02)00325-7
- Comment : the original paper describing the ABINIT project.
-
- Proc.   0 individual time (sec): cpu=        180.8  wall=         63.9

================================================================================

 Calculation completed.
.Delivered  23 WARNINGs and   2 COMMENTs to log file.
+Overall time at end (sec) : cpu=        180.8  wall=         63.9
