
.Version 8.4.1 of ABINIT 
.(sequential version, prepared for a x86_64_linux_gnu7.0 computer) 

.Copyright (C) 1998-2017 ABINIT group . 
 ABINIT comes with ABSOLUTELY NO WARRANTY.
 It is free software, and you are welcome to redistribute it
 under certain conditions (GNU General Public License,
 see ~abinit/COPYING or http://www.gnu.org/copyleft/gpl.txt).

 ABINIT is a project of the Universite Catholique de Louvain,
 Corning Inc. and other collaborators, see ~abinit/doc/developers/contributors.txt .
 Please read ~abinit/doc/users/acknowledgments.html for suggested
 acknowledgments of the ABINIT effort.
 For more information, see http://www.abinit.org .

.Starting date : Wed  9 Aug 2017.
- ( at 11h36 )
  
- input  file    -> mos2_3.in
- output file    -> mos2_3.out
- root for input  files -> mos2_3i
- root for output files -> mos2_3o


 Symmetries : space group P-6 m 2 (#187); Bravais hP (primitive hexag.)
================================================================================
 Values of the parameters that define the memory need of the present run
     intxc =       0    ionmov =       2      iscf =       7    lmnmax =       6
     lnmax =       6     mgfft =     150  mpssoang =       3    mqgrid =    7366
     natom =       3  nloc_mem =       1    nspden =       1   nspinor =       1
    nsppol =       1      nsym =      12    n1xccc =    2501    ntypat =       2
    occopt =       1   xclevel =       1
-    mband =          10        mffmem =           1         mkmem =          10
       mpw =        4518          nfft =       86400          nkpt =          10
================================================================================
P This job should need less than                      35.122 Mbytes of memory.
  Rough estimation (10% accuracy) of disk space for files :
_ WF disk file :      6.896 Mbytes ; DEN or POT disk file :      0.661 Mbytes.
================================================================================

--------------------------------------------------------------------------------
------------- Echo of variables that govern the present computation ------------
--------------------------------------------------------------------------------
-
- outvars: echo of selected default values                                      
-   iomode0 =  0 , fftalg0 =112 , wfoptalg0 =  0
-
- outvars: echo of global parameters not present in the input file              
-  max_nthreads =    0
-
 -outvars: echo values of preprocessed input variables --------
            acell      5.9526373186E+00  5.9526373186E+00  3.7794522658E+01 Bohr
              amu      9.59400000E+01  3.20660000E+01
           diemac      1.20000000E+01
          dilatmx      1.05000000E+00
             ecut      1.70000000E+01 Hartree
           ecutsm      5.00000000E-01 Hartree
-          fftalg         112
           ionmov           2
           istwfk        4    0    0    0    5    0    0    0    0    0
              kpt      0.00000000E+00  0.00000000E+00  5.00000000E-01
                       1.25000000E-01  0.00000000E+00  5.00000000E-01
                       2.50000000E-01  0.00000000E+00  5.00000000E-01
                       3.75000000E-01  0.00000000E+00  5.00000000E-01
                       5.00000000E-01  0.00000000E+00  5.00000000E-01
                       1.25000000E-01  1.25000000E-01  5.00000000E-01
                       2.50000000E-01  1.25000000E-01  5.00000000E-01
                       3.75000000E-01  1.25000000E-01  5.00000000E-01
                       2.50000000E-01  2.50000000E-01  5.00000000E-01
                       3.75000000E-01  2.50000000E-01  5.00000000E-01
         kptrlatt        8    0    0      0    8    0      0    0    1
          kptrlen      4.76210985E+01
P           mkmem          10
            natom           3
            nband          10
            ngfft          24      24     150
             nkpt          10
            nstep          10
             nsym          12
            ntime          10
           ntypat           2
              occ      2.000000  2.000000  2.000000  2.000000  2.000000  2.000000
                       2.000000  2.000000  2.000000  0.000000
          optcell           1
            rprim      1.0000000000E+00  0.0000000000E+00  0.0000000000E+00
                      -5.0000000000E-01  8.6602540378E-01  0.0000000000E+00
                       0.0000000000E+00  0.0000000000E+00  1.0000000000E+00
           shiftk      0.00000000E+00  0.00000000E+00  5.00000000E-01
          spgroup         187
           symrel      1  0  0   0  1  0   0  0  1       0 -1  0  -1  0  0   0  0 -1
                      -1 -1  0   1  0  0   0  0 -1      -1  0  0   1  1  0   0  0  1
                       0  1  0  -1 -1  0   0  0  1       1  1  0   0 -1  0   0  0 -1
                       1  0  0   0  1  0   0  0 -1       0 -1  0  -1  0  0   0  0  1
                      -1 -1  0   1  0  0   0  0  1      -1  0  0   1  1  0   0  0 -1
                       0  1  0  -1 -1  0   0  0 -1       1  1  0   0 -1  0   0  0  1
           toldfe      1.00000000E-06 Hartree
            typat      1  2  2
              wtk        0.01563    0.09375    0.09375    0.09375    0.04688    0.09375
                         0.18750    0.18750    0.09375    0.09375
           xangst      0.0000000000E+00  0.0000000000E+00  0.0000000000E+00
                       1.5750000000E+00  9.0932667397E-01  1.5850000000E+00
                       1.5750000000E+00  9.0932667397E-01 -1.5850000000E+00
            xcart      0.0000000000E+00  0.0000000000E+00  0.0000000000E+00
                       2.9763186593E+00  1.7183783791E+00  2.9952159206E+00
                       2.9763186593E+00  1.7183783791E+00 -2.9952159206E+00
             xred      0.0000000000E+00  0.0000000000E+00  0.0000000000E+00
                       6.6666666667E-01  3.3333333333E-01  7.9250000000E-02
                       6.6666666667E-01  3.3333333333E-01 -7.9250000000E-02
            znucl       42.00000   16.00000

================================================================================

 chkinp: Checking input parameters for consistency.

================================================================================
== DATASET  1 ==================================================================
-   nproc =    1

 Exchange-correlation functional for the present dataset will be:
  LDA: new Teter (4/93) with spin-polarized option - ixc=1
 Citation for XC functional:
  S. Goedecker, M. Teter, J. Huetter, PRB 54, 1703 (1996)

 Real(R)+Recip(G) space primitive vectors, cartesian coordinates (Bohr,Bohr^-1):
 R(1)=  5.9526373  0.0000000  0.0000000  G(1)=  0.1679928  0.0969907  0.0000000
 R(2)= -2.9763187  5.1551351  0.0000000  G(2)=  0.0000000  0.1939813  0.0000000
 R(3)=  0.0000000  0.0000000 37.7945227  G(3)=  0.0000000  0.0000000  0.0264589
 Unit cell volume ucvol=  1.1597873E+03 bohr^3
 Angles (23,13,12)=  9.00000000E+01  9.00000000E+01  1.20000000E+02 degrees

 getcut: wavevector=  0.0000  0.0000  0.0000  ngfft=  24  24 150
         ecut(hartree)=     18.743   => boxcut(ratio)=   2.03650

--- Pseudopotential description ------------------------------------------------
- pspini: atom type   1  psp file is ./42mo.pspnc
- pspatm: opening atomic psp file    ./42mo.pspnc
-  Troullier-Martins psp for element  Mo        Thu Oct 27 17:40:28 EDT 1994
- 42.00000   6.00000    940714                znucl, zion, pspdat
    1    1    2    0      2001   0.00000      pspcod,pspxc,lmax,lloc,mmax,r2well
    0   4.276   7.035    0   2.8930462        l,e99.0,e99.9,nproj,rcpsp
   0.00000000   0.00000000   0.00000000   0.00000000     rms, ekb1, ekb2, epsatm
    1   1.499   2.758    1   3.1973167        l,e99.0,e99.9,nproj,rcpsp
   0.00000000   0.00000000   0.00000000   0.00000000     rms, ekb1, ekb2, epsatm
    2  11.774  15.725    1   2.1974630        l,e99.0,e99.9,nproj,rcpsp
   0.00000000   0.00000000   0.00000000   0.00000000     rms, ekb1, ekb2, epsatm
    2.63204696240783    0.28531456933550    4.53995799271176   rchrg,fchrg,qchrg
 pspatm: epsatm=   89.23647829
         --- l  ekb(1:nproj) -->
             1    0.432305
             2   -4.457359
 pspatm: atomic psp has been read  and splines computed

- pspini: atom type   2  psp file is ./S.psp8
- pspatm: opening atomic psp file    ./S.psp8
- S     ONCVPSP  r_core=  1.45  1.45  1.62
- 16.00000   6.00000    151027                znucl, zion, pspdat
    8   11    2    4       600   0.00000      pspcod,pspxc,lmax,lloc,mmax,r2well
    5.99000000000000    6.00000000000000    0.00000000000000   rchrg,fchrg,qchrg
     nproj     2     2     2
extension_switch     1
 pspatm: epsatm=    9.01629391
         --- l  ekb(1:nproj) -->
             0    6.687458    0.573856
             1    3.355342    0.912754
             2   -8.510942   -1.367258
 pspatm: atomic psp has been read  and splines computed

   1.93084319E+03                                ecore*ucvol(ha*bohr**3)
--------------------------------------------------------------------------------

_setup2: Arith. and geom. avg. npw (full set) are    4495.156    4495.138

================================================================================

=== [ionmov= 2] Broyden-Fletcher-Goldfard-Shanno method (forces)            
================================================================================

--- Iteration: ( 1/10) Internal Cycle: (1/1)
--------------------------------------------------------------------------------

---SELF-CONSISTENT-FIELD CONVERGENCE--------------------------------------------

     iter   Etot(hartree)      deltaE(h)  residm     vres2
 ETOT  1  -31.652784721129    -3.165E+01 5.460E-02 3.168E+03
 ETOT  2  -31.592702838492     6.008E-02 8.578E-03 3.558E+03
 ETOT  3  -32.128259787936    -5.356E-01 1.136E-02 3.632E+02
 ETOT  4  -32.156664430764    -2.840E-02 2.529E-03 1.050E+02
 ETOT  5  -32.161626348367    -4.962E-03 1.528E-03 7.620E+00
 ETOT  6  -32.161561014551     6.533E-05 5.132E-04 3.468E+00
 ETOT  7  -32.161703764162    -1.427E-04 3.289E-04 2.975E+00
 ETOT  8  -32.161744818966    -4.105E-05 2.168E-04 1.148E+00
 ETOT  9  -32.161707488825     3.733E-05 1.963E-04 3.990E-01
 ETOT 10  -32.161740798890    -3.331E-05 2.530E-04 1.532E-01

 Cartesian components of stress tensor (hartree/bohr^3)
  sigma(1 1)= -8.75699126E-05  sigma(3 2)=  0.00000000E+00
  sigma(2 2)= -8.75699126E-05  sigma(3 1)=  0.00000000E+00
  sigma(3 3)= -9.37874136E-05  sigma(2 1)=  0.00000000E+00


 scprqt:  WARNING -
  nstep=   10 was not enough SCF cycles to converge;
  maximum energy difference=  3.331E-05 exceeds toldfe=  1.000E-06

 Integrated electronic density in atomic spheres:
 ------------------------------------------------
 Atom  Sphere_radius  Integrated_density
    1        2.00000          2.97333071
    2        2.00000          3.88797455
    3        2.00000          3.88797455

---OUTPUT-----------------------------------------------------------------------

 Cartesian coordinates (xcart) [bohr]
  0.00000000000000E+00  0.00000000000000E+00  0.00000000000000E+00
  2.97631865929489E+00  1.71837837912920E+00  2.99521592062374E+00
  2.97631865929489E+00  1.71837837912920E+00 -2.99521592062374E+00
 Reduced coordinates (xred)
  0.00000000000000E+00  0.00000000000000E+00  0.00000000000000E+00
  6.66666666666667E-01  3.33333333333333E-01  7.92500000000000E-02
  6.66666666666667E-01  3.33333333333333E-01 -7.92500000000000E-02
 Cartesian forces (fcart) [Ha/bohr]; max,rms= 1.64417E-02 7.75070E-03 (free atoms)
 -0.00000000000000E+00 -0.00000000000000E+00 -0.00000000000000E+00
 -0.00000000000000E+00 -0.00000000000000E+00  1.64417157118955E-02
 -0.00000000000000E+00 -0.00000000000000E+00 -1.64417157118955E-02
 Reduced forces (fred)
  0.00000000000000E+00 -0.00000000000000E+00  0.00000000000000E+00
 -0.00000000000000E+00 -0.00000000000000E+00 -6.21406797004908E-01
  0.00000000000000E+00 -0.00000000000000E+00  6.21406797004908E-01
 Scale of Primitive Cell (acell) [bohr]
  5.95263731858978E+00  5.95263731858978E+00  3.77945226577129E+01
 Real space primitive translations (rprimd) [bohr]
  5.95263731858978E+00  0.00000000000000E+00  0.00000000000000E+00
 -2.97631865929489E+00  5.15513513738761E+00  0.00000000000000E+00
  0.00000000000000E+00  0.00000000000000E+00  3.77945226577129E+01
 Unitary Cell Volume (ucvol) [Bohr^3]=  1.15978728120026E+03
 Angles (23,13,12)= [degrees]
  9.00000000000000E+01  9.00000000000000E+01  1.20000000000127E+02
 Lengths [Bohr]
  5.95263731858978E+00  5.95263731856689E+00  3.77945226577129E+01
 Stress tensor in cartesian coordinates (strten) [Ha/bohr^3]
 -8.75699126382972E-05  0.00000000000000E+00  0.00000000000000E+00
  0.00000000000000E+00 -8.75699126244810E-05  0.00000000000000E+00
  0.00000000000000E+00  0.00000000000000E+00 -9.37874136106610E-05
 Total energy (etotal) [Ha]= -3.21617407988902E+01

--- Iteration: ( 2/10) Internal Cycle: (1/1)
--------------------------------------------------------------------------------

---SELF-CONSISTENT-FIELD CONVERGENCE--------------------------------------------

     iter   Etot(hartree)      deltaE(h)  residm     vres2
 ETOT  1  -32.084340906838    -3.208E+01 6.312E-04 2.332E+03
 ETOT  2  -31.998196698078     8.614E-02 1.747E-03 7.695E+02
 ETOT  3  -32.139713575616    -1.415E-01 1.658E-03 7.819E+02
 ETOT  4  -32.161822873210    -2.211E-02 1.017E-03 2.673E+02
 ETOT  5  -32.162169300412    -3.464E-04 2.887E-04 3.358E+01
 ETOT  6  -32.162925200517    -7.559E-04 4.254E-04 5.725E+00
 ETOT  7  -32.162917669989     7.531E-06 1.396E-04 1.126E+00
 ETOT  8  -32.162934298318    -1.663E-05 2.027E-04 2.695E-01
 ETOT  9  -32.162938356542    -4.058E-06 6.704E-05 3.916E-02
 ETOT 10  -32.162938686745    -3.302E-07 9.224E-05 6.078E-03

 Cartesian components of stress tensor (hartree/bohr^3)
  sigma(1 1)= -6.56340581E-05  sigma(3 2)=  0.00000000E+00
  sigma(2 2)= -6.56340581E-05  sigma(3 1)=  0.00000000E+00
  sigma(3 3)= -5.69641886E-05  sigma(2 1)=  0.00000000E+00

 Integrated electronic density in atomic spheres:
 ------------------------------------------------
 Atom  Sphere_radius  Integrated_density
    1        2.00000          2.94988538
    2        2.00000          3.86849699
    3        2.00000          3.86849699

---OUTPUT-----------------------------------------------------------------------

 Cartesian coordinates (xcart) [bohr]
  0.00000000000000E+00  0.00000000000000E+00  0.00000000000000E+00
  2.98432279088540E+00  1.72299956665759E+00  3.01975680406136E+00
  2.98432279088540E+00  1.72299956665759E+00 -3.01975680406136E+00
 Reduced coordinates (xred)
  0.00000000000000E+00  0.00000000000000E+00  0.00000000000000E+00
  6.66666666666667E-01  3.33333333333333E-01  7.96850290612426E-02
  6.66666666666667E-01  3.33333333333333E-01 -7.96850290612426E-02
 Cartesian forces (fcart) [Ha/bohr]; max,rms= 1.12270E-02 5.29248E-03 (free atoms)
  1.05264063143834E-28  6.07742351923980E-29 -0.00000000000000E+00
 -5.26320315719172E-29 -3.03871175961990E-29  1.12270374079669E-02
 -5.26320315719172E-29 -3.03871175961990E-29 -1.12270374079669E-02
 Reduced forces (fred)
 -6.28283885402690E-28  8.96831017167883E-44 -0.00000000000000E+00
  3.14141942701345E-28  2.24207754291971E-44 -4.25461633151982E-01
  3.14141942701345E-28  2.24207754291971E-44  4.25461633151982E-01
 Scale of Primitive Cell (acell) [bohr]
  5.96864558177081E+00  5.96864558177081E+00  3.78961624239416E+01
 Real space primitive translations (rprimd) [bohr]
  5.96864558177081E+00  0.00000000000000E+00  0.00000000000000E+00
 -2.98432279088540E+00  5.16899869997278E+00  0.00000000000000E+00
  0.00000000000000E+00  0.00000000000000E+00  3.78961624239416E+01
 Unitary Cell Volume (ucvol) [Bohr^3]=  1.16916941888569E+03
 Angles (23,13,12)= [degrees]
  9.00000000000000E+01  9.00000000000000E+01  1.20000000000127E+02
 Lengths [Bohr]
  5.96864558177081E+00  5.96864558174786E+00  3.78961624239416E+01
 Stress tensor in cartesian coordinates (strten) [Ha/bohr^3]
 -6.56340581484014E-05  0.00000000000000E+00  0.00000000000000E+00
  0.00000000000000E+00 -6.56340581345948E-05  0.00000000000000E+00
  0.00000000000000E+00  0.00000000000000E+00 -5.69641886077007E-05
 Total energy (etotal) [Ha]= -3.21629386867449E+01

 Difference of energy with previous step (new-old):
           Absolute (Ha)=-1.19789E-03
           Relative     =-3.72450E-05

--- Iteration: ( 3/10) Internal Cycle: (1/1)
--------------------------------------------------------------------------------

---SELF-CONSISTENT-FIELD CONVERGENCE--------------------------------------------

     iter   Etot(hartree)      deltaE(h)  residm     vres2
 ETOT  1  -28.257040644825    -2.826E+01 2.956E-01 2.171E+05
 ETOT  2  -29.195442221402    -9.384E-01 5.617E-02 2.338E+04
 ETOT  3  -31.038002640934    -1.843E+00 3.554E-02 7.349E+03
 ETOT  4  -32.113121865457    -1.075E+00 1.363E-02 1.823E+02
 ETOT  5  -32.161166176450    -4.804E-02 1.067E-03 1.189E+01
 ETOT  6  -32.159661220998     1.505E-03 7.834E-04 3.243E+01
 ETOT  7  -32.163935299774    -4.274E-03 9.568E-04 5.322E+00
 ETOT  8  -32.163971435032    -3.614E-05 9.465E-04 3.460E+00
 ETOT  9  -32.163991495544    -2.006E-05 8.173E-04 1.911E+00
 ETOT 10  -32.163994642142    -3.147E-06 5.902E-04 2.896E-01

 Cartesian components of stress tensor (hartree/bohr^3)
  sigma(1 1)= -1.60517710E-05  sigma(3 2)=  0.00000000E+00
  sigma(2 2)= -1.60517709E-05  sigma(3 1)=  0.00000000E+00
  sigma(3 3)=  1.59346364E-05  sigma(2 1)=  0.00000000E+00


 scprqt:  WARNING -
  nstep=   10 was not enough SCF cycles to converge;
  maximum energy difference=  3.147E-06 exceeds toldfe=  1.000E-06

 Integrated electronic density in atomic spheres:
 ------------------------------------------------
 Atom  Sphere_radius  Integrated_density
    1        2.00000          2.91349830
    2        2.00000          3.83974264
    3        2.00000          3.83974264

---OUTPUT-----------------------------------------------------------------------

 Cartesian coordinates (xcart) [bohr]
  3.51925459727069E-28  2.03184258909147E-28  0.00000000000000E+00
  3.00299577751087E+00  1.73378042051233E+00  3.07620534726062E+00
  3.00299577751087E+00  1.73378042051233E+00 -3.07620534726062E+00
 Reduced coordinates (xred)
  7.81276400416553E-29  3.90638200211279E-29  0.00000000000000E+00
  6.66666666666667E-01  3.33333333333333E-01  8.06698340740164E-02
  6.66666666666667E-01  3.33333333333333E-01 -8.06698340740164E-02
 Cartesian forces (fcart) [Ha/bohr]; max,rms= 3.28483E-03 1.54849E-03 (free atoms)
  8.96653016737263E-29  5.17682860585602E-29 -0.00000000000000E+00
 -4.48326508368631E-29 -2.58841430292801E-29 -3.28483331515425E-03
 -4.48326508368631E-29 -2.58841430292801E-29  3.28483331515425E-03
 Reduced forces (fred)
 -5.38529044630877E-28  4.48415508583941E-44 -0.00000000000000E+00
  2.69264522315439E-28 -2.24207754291971E-44  1.25261467622035E-01
  2.69264522315439E-28 -2.24207754291971E-44 -1.25261467622035E-01
 Scale of Primitive Cell (acell) [bohr]
  6.00599155502175E+00  6.00599155502175E+00  3.81332797144238E+01
 Real space primitive translations (rprimd) [bohr]
  6.00599155502175E+00  0.00000000000000E+00  0.00000000000000E+00
 -3.00299577751087E+00  5.20134126153698E+00  0.00000000000000E+00
  0.00000000000000E+00  0.00000000000000E+00  3.81332797144238E+01
 Unitary Cell Volume (ucvol) [Bohr^3]=  1.19125359749301E+03
 Angles (23,13,12)= [degrees]
  9.00000000000000E+01  9.00000000000000E+01  1.20000000000127E+02
 Lengths [Bohr]
  6.00599155502175E+00  6.00599155499866E+00  3.81332797144238E+01
 Stress tensor in cartesian coordinates (strten) [Ha/bohr^3]
 -1.60517709564096E-05  0.00000000000000E+00  0.00000000000000E+00
  0.00000000000000E+00 -1.60517709426270E-05  0.00000000000000E+00
  0.00000000000000E+00  0.00000000000000E+00  1.59346363735676E-05
 Total energy (etotal) [Ha]= -3.21639946421417E+01

 Difference of energy with previous step (new-old):
           Absolute (Ha)=-1.05596E-03
           Relative     =-3.28309E-05

--- Iteration: ( 4/10) Internal Cycle: (1/1)
--------------------------------------------------------------------------------

---SELF-CONSISTENT-FIELD CONVERGENCE--------------------------------------------

     iter   Etot(hartree)      deltaE(h)  residm     vres2
 ETOT  1  -32.163945323691    -3.216E+01 1.424E-03 1.176E+00
 ETOT  2  -32.163812240936     1.331E-04 4.711E-03 1.140E+00
 ETOT  3  -32.164007628774    -1.954E-04 7.309E-05 1.869E-01
 ETOT  4  -32.164015779051    -8.150E-06 4.536E-05 5.327E-02
 ETOT  5  -32.164016185273    -4.062E-07 9.817E-05 1.135E-02
 ETOT  6  -32.164016193093    -7.819E-09 2.518E-05 2.588E-03

 At SCF step    6, etot is converged : 
  for the second time, diff in etot=  7.819E-09 < toldfe=  1.000E-06

 Cartesian components of stress tensor (hartree/bohr^3)
  sigma(1 1)= -1.97321800E-05  sigma(3 2)=  0.00000000E+00
  sigma(2 2)= -1.97321800E-05  sigma(3 1)=  0.00000000E+00
  sigma(3 3)=  9.96394397E-06  sigma(2 1)=  0.00000000E+00

 Integrated electronic density in atomic spheres:
 ------------------------------------------------
 Atom  Sphere_radius  Integrated_density
    1        2.00000          2.91569297
    2        2.00000          3.83762458
    3        2.00000          3.83762458

---OUTPUT-----------------------------------------------------------------------

 Cartesian coordinates (xcart) [bohr]
  4.27756793200359E-28  2.46965499703184E-28  0.00000000000000E+00
  3.00293717769188E+00  1.73374658789106E+00  3.07192439277963E+00
  3.00293717769188E+00  1.73374658789106E+00 -3.07192439277963E+00
 Reduced coordinates (xred)
  9.49640896872923E-29  4.74820448440112E-29  0.00000000000000E+00
  6.66666666666667E-01  3.33333333333333E-01  8.05591431377649E-02
  6.66666666666667E-01  3.33333333333333E-01 -8.05591431377649E-02
 Cartesian forces (fcart) [Ha/bohr]; max,rms= 1.95959E-03 9.23758E-04 (free atoms)
  7.47225428478662E-30  4.31410802279700E-30 -0.00000000000000E+00
  7.47225428478662E-30  4.31410802279700E-30 -1.95958768195051E-03
 -1.49445085695732E-29 -8.62821604559400E-30  1.95958768195051E-03
 Reduced forces (fred)
 -4.48774203859064E-29  5.60519385729927E-45 -0.00000000000000E+00
 -4.48774203859064E-29  5.60519385729927E-45  7.47240470231903E-02
  8.97548407718129E-29 -2.24207754291971E-44 -7.47240470231903E-02
 Scale of Primitive Cell (acell) [bohr]
  6.00587435538377E+00  6.00587435538377E+00  3.81325355897382E+01
 Real space primitive translations (rprimd) [bohr]
  6.00587435538377E+00  0.00000000000000E+00  0.00000000000000E+00
 -3.00293717769188E+00  5.20123976367317E+00  0.00000000000000E+00
  0.00000000000000E+00  0.00000000000000E+00  3.81325355897382E+01
 Unitary Cell Volume (ucvol) [Bohr^3]=  1.19118386124811E+03
 Angles (23,13,12)= [degrees]
  9.00000000000000E+01  9.00000000000000E+01  1.20000000000127E+02
 Lengths [Bohr]
  6.00587435538377E+00  6.00587435536068E+00  3.81325355897382E+01
 Stress tensor in cartesian coordinates (strten) [Ha/bohr^3]
 -1.97321799899261E-05  0.00000000000000E+00  0.00000000000000E+00
  0.00000000000000E+00 -1.97321799761797E-05  0.00000000000000E+00
  0.00000000000000E+00  0.00000000000000E+00  9.96394396591692E-06
 Total energy (etotal) [Ha]= -3.21640161930925E+01

 Difference of energy with previous step (new-old):
           Absolute (Ha)=-2.15510E-05
           Relative     =-6.70033E-07

--- Iteration: ( 5/10) Internal Cycle: (1/1)
--------------------------------------------------------------------------------

---SELF-CONSISTENT-FIELD CONVERGENCE--------------------------------------------

     iter   Etot(hartree)      deltaE(h)  residm     vres2
 ETOT  1  -32.159738600893    -3.216E+01 2.439E-05 2.126E+02
 ETOT  2  -32.157429570338     2.309E-03 3.997E-05 4.700E+01
 ETOT  3  -32.161616816567    -4.187E-03 6.565E-05 1.063E+02
 ETOT  4  -32.164026154520    -2.409E-03 1.939E-05 3.154E+01
 ETOT  5  -32.164064121543    -3.797E-05 3.919E-05 3.323E+00
 ETOT  6  -32.164091239306    -2.712E-05 8.273E-06 4.047E-01
 ETOT  7  -32.164092374739    -1.135E-06 1.968E-05 1.088E-01
 ETOT  8  -32.164094337873    -1.963E-06 6.125E-06 2.469E-02
 ETOT  9  -32.164094453939    -1.161E-07 1.470E-05 7.340E-03
 ETOT 10  -32.164094707233    -2.533E-07 4.900E-06 9.881E-04

 At SCF step   10, etot is converged : 
  for the second time, diff in etot=  2.533E-07 < toldfe=  1.000E-06

 Cartesian components of stress tensor (hartree/bohr^3)
  sigma(1 1)= -1.93087180E-05  sigma(3 2)=  0.00000000E+00
  sigma(2 2)= -1.93087180E-05  sigma(3 1)=  0.00000000E+00
  sigma(3 3)=  3.31227129E-06  sigma(2 1)=  0.00000000E+00

 Integrated electronic density in atomic spheres:
 ------------------------------------------------
 Atom  Sphere_radius  Integrated_density
    1        2.00000          2.92224549
    2        2.00000          3.82410351
    3        2.00000          3.82410351

---OUTPUT-----------------------------------------------------------------------

 Cartesian coordinates (xcart) [bohr]
  6.67634420765797E-28  3.85458912551368E-28  0.00000000000000E+00
  3.00633524109840E+00  1.73570846071352E+00  3.06256640306349E+00
  3.00633524109840E+00  1.73570846071352E+00 -3.06256640306349E+00
 Reduced coordinates (xred)
  1.48050559285726E-28  7.40252796434320E-29  0.00000000000000E+00
  6.66666666666667E-01  3.33333333333333E-01  8.02229574879789E-02
  6.66666666666667E-01  3.33333333333333E-01 -8.02229574879789E-02
 Cartesian forces (fcart) [Ha/bohr]; max,rms= 6.41132E-04 3.02233E-04 (free atoms)
 -1.49276167781974E-29 -8.61846356529600E-30 -0.00000000000000E+00
  7.46380838909868E-30  4.30923178264800E-30 -6.41132228967300E-04
  7.46380838909868E-30  4.30923178264800E-30  6.41132228967300E-04
 Reduced forces (fred)
  8.97548407718129E-29 -0.00000000000000E+00  0.00000000000000E+00
 -4.48774203859064E-29 -0.00000000000000E+00  2.44756624018839E-02
 -4.48774203859064E-29 -0.00000000000000E+00 -2.44756624018839E-02
 Scale of Primitive Cell (acell) [bohr]
  6.01267048219679E+00  6.01267048219679E+00  3.81756856012495E+01
 Real space primitive translations (rprimd) [bohr]
  6.01267048219679E+00  0.00000000000000E+00  0.00000000000000E+00
 -3.00633524109840E+00  5.20712538214056E+00  0.00000000000000E+00
  0.00000000000000E+00  0.00000000000000E+00  3.81756856012495E+01
 Unitary Cell Volume (ucvol) [Bohr^3]=  1.19523219802036E+03
 Angles (23,13,12)= [degrees]
  9.00000000000000E+01  9.00000000000000E+01  1.20000000000127E+02
 Lengths [Bohr]
  6.01267048219679E+00  6.01267048217368E+00  3.81756856012495E+01
 Stress tensor in cartesian coordinates (strten) [Ha/bohr^3]
 -1.93087180042331E-05  0.00000000000000E+00  0.00000000000000E+00
  0.00000000000000E+00 -1.93087179905771E-05  0.00000000000000E+00
  0.00000000000000E+00  0.00000000000000E+00  3.31227128684921E-06
 Total energy (etotal) [Ha]= -3.21640947072331E+01

 Difference of energy with previous step (new-old):
           Absolute (Ha)=-7.85141E-05
           Relative     =-2.44105E-06

--- Iteration: ( 6/10) Internal Cycle: (1/1)
--------------------------------------------------------------------------------

---SELF-CONSISTENT-FIELD CONVERGENCE--------------------------------------------

     iter   Etot(hartree)      deltaE(h)  residm     vres2
 ETOT  1  -32.081953438172    -3.208E+01 2.421E-02 3.481E+03
 ETOT  2  -32.037190592210     4.476E-02 5.887E-03 7.406E+02
 ETOT  3  -32.121305701482    -8.412E-02 1.366E-03 1.579E+03
 ETOT  4  -32.162649651467    -4.134E-02 4.361E-04 5.187E+02
 ETOT  5  -32.163331535387    -6.819E-04 2.744E-03 6.138E+01
 ETOT  6  -32.164199176934    -8.676E-04 1.684E-02 6.864E+00
 ETOT  7  -32.164203226019    -4.049E-06 2.263E-04 1.915E+00
 ETOT  8  -32.164217121020    -1.390E-05 2.436E-05 4.968E-01
 ETOT  9  -32.164235124792    -1.800E-05 1.879E-05 1.066E-01
 ETOT 10  -32.164237357148    -2.232E-06 1.161E-05 2.246E-02

 Cartesian components of stress tensor (hartree/bohr^3)
  sigma(1 1)= -1.23230260E-05  sigma(3 2)=  0.00000000E+00
  sigma(2 2)= -1.23230260E-05  sigma(3 1)=  0.00000000E+00
  sigma(3 3)= -8.95091685E-06  sigma(2 1)=  0.00000000E+00


 scprqt:  WARNING -
  nstep=   10 was not enough SCF cycles to converge;
  maximum energy difference=  2.232E-06 exceeds toldfe=  1.000E-06

 Integrated electronic density in atomic spheres:
 ------------------------------------------------
 Atom  Sphere_radius  Integrated_density
    1        2.00000          2.92803829
    2        2.00000          3.83473068
    3        2.00000          3.83473068

---OUTPUT-----------------------------------------------------------------------

 Cartesian coordinates (xcart) [bohr]
  1.50537035237113E-27  8.69125978176005E-28  0.00000000000000E+00
  3.01907534723646E+00  1.74306396442180E+00  3.03936398300436E+00
  3.01907534723646E+00  1.74306396442180E+00 -3.03936398300436E+00
 Reduced coordinates (xred)
  3.32413113119317E-28  1.66206556560936E-28  0.00000000000000E+00
  6.66666666666667E-01  3.33333333333333E-01  7.92792117231139E-02
  6.66666666666667E-01  3.33333333333333E-01 -7.92792117231139E-02
 Cartesian forces (fcart) [Ha/bohr]; max,rms= 1.56677E-03 7.38581E-04 (free atoms)
  1.33781617554815E-28  7.72388529082917E-29 -0.00000000000000E+00
 -6.68908087774073E-29 -3.86194264541459E-29  1.56676653586087E-03
 -6.68908087774073E-29 -3.86194264541459E-29 -1.56676653586087E-03
 Reduced forces (fred)
 -8.07793566946316E-28 -0.00000000000000E+00 -0.00000000000000E+00
  4.03896783473158E-28  2.24207754291971E-44 -6.00658568037159E-02
  4.03896783473158E-28  2.24207754291971E-44  6.00658568037159E-02
 Scale of Primitive Cell (acell) [bohr]
  6.03815069447293E+00  6.03815069447293E+00  3.83374647268122E+01
 Real space primitive translations (rprimd) [bohr]
  6.03815069447293E+00  0.00000000000000E+00  0.00000000000000E+00
 -3.01907534723646E+00  5.22919189326540E+00  0.00000000000000E+00
  0.00000000000000E+00  0.00000000000000E+00  3.83374647268122E+01
 Unitary Cell Volume (ucvol) [Bohr^3]=  1.21049197933527E+03
 Angles (23,13,12)= [degrees]
  9.00000000000000E+01  9.00000000000000E+01  1.20000000000127E+02
 Lengths [Bohr]
  6.03815069447293E+00  6.03815069444972E+00  3.83374647268122E+01
 Stress tensor in cartesian coordinates (strten) [Ha/bohr^3]
 -1.23230259921675E-05  0.00000000000000E+00  0.00000000000000E+00
  0.00000000000000E+00 -1.23230259787862E-05  0.00000000000000E+00
  0.00000000000000E+00  0.00000000000000E+00 -8.95091685116831E-06
 Total energy (etotal) [Ha]= -3.21642373571484E+01

 Difference of energy with previous step (new-old):
           Absolute (Ha)=-1.42650E-04
           Relative     =-4.43506E-06

--- Iteration: ( 7/10) Internal Cycle: (1/1)
--------------------------------------------------------------------------------

---SELF-CONSISTENT-FIELD CONVERGENCE--------------------------------------------

     iter   Etot(hartree)      deltaE(h)  residm     vres2
 ETOT  1  -32.137435125914    -3.214E+01 1.820E-04 1.069E+03
 ETOT  2  -32.116704107522     2.073E-02 3.055E-04 2.498E+02
 ETOT  3  -32.151985874691    -3.528E-02 4.282E-04 4.746E+02
 ETOT  4  -32.163852872444    -1.187E-02 6.074E-05 1.525E+02
 ETOT  5  -32.164046190957    -1.933E-04 1.295E-05 1.735E+01
 ETOT  6  -32.164253606357    -2.074E-04 6.078E-06 1.963E+00
 ETOT  7  -32.164251722581     1.884E-06 5.373E-06 5.016E-01
 ETOT  8  -32.164252951214    -1.229E-06 4.245E-06 1.487E-01
 ETOT  9  -32.164265703120    -1.275E-05 3.502E-06 3.389E-02
 ETOT 10  -32.164265740261    -3.714E-08 2.524E-06 7.914E-03

 Cartesian components of stress tensor (hartree/bohr^3)
  sigma(1 1)= -5.77621294E-06  sigma(3 2)=  0.00000000E+00
  sigma(2 2)= -5.77621293E-06  sigma(3 1)=  0.00000000E+00
  sigma(3 3)= -8.43223363E-06  sigma(2 1)=  0.00000000E+00

 Integrated electronic density in atomic spheres:
 ------------------------------------------------
 Atom  Sphere_radius  Integrated_density
    1        2.00000          2.92703654
    2        2.00000          3.83164233
    3        2.00000          3.83164233

---OUTPUT-----------------------------------------------------------------------

 Cartesian coordinates (xcart) [bohr]
  2.18008296909559E-27  1.25867148906951E-27  0.00000000000000E+00
  3.02603379049540E+00  1.74708142351047E+00  3.03338486773065E+00
  3.02603379049540E+00  1.74708142351047E+00 -3.03338486773065E+00
 Reduced coordinates (xred)
  4.80294916280334E-28  2.40147458142013E-28  0.00000000000000E+00
  6.66666666666667E-01  3.33333333333333E-01  7.89413056404375E-02
  6.66666666666667E-01  3.33333333333333E-01 -7.89413056404375E-02
 Cartesian forces (fcart) [Ha/bohr]; max,rms= 2.08813E-03 9.84352E-04 (free atoms)
 -1.18643540668617E-28 -6.84988801429877E-29  1.44560289664734E-19
  5.93217703343088E-29  3.42494400714939E-29  2.08812608210631E-03
  5.93217703343088E-29  3.42494400714939E-29 -2.08812608210631E-03
 Reduced forces (fred)
  7.18038726174503E-28 -0.00000000000000E+00 -5.55484852430841E-18
 -3.59019363087252E-28 -2.24207754291971E-44 -8.02379693113456E-02
 -3.59019363087252E-28 -2.24207754291971E-44  8.02379693113456E-02
 Scale of Primitive Cell (acell) [bohr]
  6.05206758099080E+00  6.05206758099080E+00  3.84258259110527E+01
 Real space primitive translations (rprimd) [bohr]
  6.05206758099080E+00  0.00000000000000E+00  0.00000000000000E+00
 -3.02603379049540E+00  5.24124427053140E+00  0.00000000000000E+00
  0.00000000000000E+00  0.00000000000000E+00  3.84258259110527E+01
 Unitary Cell Volume (ucvol) [Bohr^3]=  1.21888120540850E+03
 Angles (23,13,12)= [degrees]
  9.00000000000000E+01  9.00000000000000E+01  1.20000000000127E+02
 Lengths [Bohr]
  6.05206758099080E+00  6.05206758096753E+00  3.84258259110527E+01
 Stress tensor in cartesian coordinates (strten) [Ha/bohr^3]
 -5.77621294234418E-06  0.00000000000000E+00  0.00000000000000E+00
  0.00000000000000E+00 -5.77621292908114E-06  0.00000000000000E+00
  0.00000000000000E+00  0.00000000000000E+00 -8.43223363491551E-06
 Total energy (etotal) [Ha]= -3.21642657402609E+01

 Difference of energy with previous step (new-old):
           Absolute (Ha)=-2.83831E-05
           Relative     =-8.82443E-07

--- Iteration: ( 8/10) Internal Cycle: (1/1)
--------------------------------------------------------------------------------

---SELF-CONSISTENT-FIELD CONVERGENCE--------------------------------------------

     iter   Etot(hartree)      deltaE(h)  residm     vres2
 ETOT  1  -32.162697729829    -3.216E+01 1.981E-05 4.950E+01
 ETOT  2  -32.161162754739     1.535E-03 3.251E-05 1.424E+01
 ETOT  3  -32.163744142320    -2.581E-03 2.503E-05 1.875E+01
 ETOT  4  -32.164262395803    -5.183E-04 2.955E-06 6.435E+00
 ETOT  5  -32.164276930843    -1.454E-05 9.171E-07 7.779E-01
 ETOT  6  -32.164283202957    -6.272E-06 1.551E-06 9.785E-02
 ETOT  7  -32.164283299993    -9.704E-08 3.839E-07 1.979E-02
 ETOT  8  -32.164283465958    -1.660E-07 6.862E-07 4.640E-03

 At SCF step    8, etot is converged : 
  for the second time, diff in etot=  1.660E-07 < toldfe=  1.000E-06

 Cartesian components of stress tensor (hartree/bohr^3)
  sigma(1 1)= -1.63556272E-06  sigma(3 2)=  0.00000000E+00
  sigma(2 2)= -1.63556270E-06  sigma(3 1)=  0.00000000E+00
  sigma(3 3)= -2.69899869E-06  sigma(2 1)=  0.00000000E+00

 Integrated electronic density in atomic spheres:
 ------------------------------------------------
 Atom  Sphere_radius  Integrated_density
    1        2.00000          2.92891510
    2        2.00000          3.83279196
    3        2.00000          3.83279196

---OUTPUT-----------------------------------------------------------------------

 Cartesian coordinates (xcart) [bohr]
  2.21698114339737E-27  1.27997465993536E-27  2.88407335119905E-19
  3.02734624000185E+00  1.74783916658631E+00  3.03895815667005E+00
  3.02734624000185E+00  1.74783916658631E+00 -3.03895815667005E+00
 Reduced coordinates (xred)
  4.88212220130614E-28  2.44106110067184E-28  7.50230592741141E-21
  6.66666666666667E-01  3.33333333333333E-01  7.90520594161113E-02
  6.66666666666667E-01  3.33333333333333E-01 -7.90520594161113E-02
 Cartesian forces (fcart) [Ha/bohr]; max,rms= 4.99406E-04 2.35422E-04 (free atoms)
 -0.00000000000000E+00 -0.00000000000000E+00 -0.00000000000000E+00
 -2.22360196826441E-29  1.28379719495462E-29  4.99406374399356E-04
  2.22360196826441E-29 -1.28379719495462E-29 -4.99406374399356E-04
 Reduced forces (fred)
  0.00000000000000E+00 -0.00000000000000E+00  0.00000000000000E+00
  1.34632261157719E-28 -1.34632261157719E-28 -1.91984255208996E-02
 -1.34632261157719E-28  1.34632261157719E-28  1.91984255208996E-02
 Scale of Primitive Cell (acell) [bohr]
  6.05469248000369E+00  6.05469248000369E+00  3.84424919365314E+01
 Real space primitive translations (rprimd) [bohr]
  6.05469248000369E+00  0.00000000000000E+00  0.00000000000000E+00
 -3.02734624000185E+00  5.24351749975893E+00  0.00000000000000E+00
  0.00000000000000E+00  0.00000000000000E+00  3.84424919365314E+01
 Unitary Cell Volume (ucvol) [Bohr^3]=  1.22046785057887E+03
 Angles (23,13,12)= [degrees]
  9.00000000000000E+01  9.00000000000000E+01  1.20000000000127E+02
 Lengths [Bohr]
  6.05469248000369E+00  6.05469247998042E+00  3.84424919365314E+01
 Stress tensor in cartesian coordinates (strten) [Ha/bohr^3]
 -1.63556271532339E-06  0.00000000000000E+00  0.00000000000000E+00
  0.00000000000000E+00 -1.63556270205275E-06  0.00000000000000E+00
  0.00000000000000E+00  0.00000000000000E+00 -2.69899868924153E-06
 Total energy (etotal) [Ha]= -3.21642834659580E+01

 Difference of energy with previous step (new-old):
           Absolute (Ha)=-1.77257E-05
           Relative     =-5.51099E-07

--- Iteration: ( 9/10) Internal Cycle: (1/1)
--------------------------------------------------------------------------------

---SELF-CONSISTENT-FIELD CONVERGENCE--------------------------------------------

     iter   Etot(hartree)      deltaE(h)  residm     vres2
 ETOT  1  -32.163299444444    -3.216E+01 4.485E-05 3.175E+01
 ETOT  2  -32.162230743947     1.069E-03 1.524E-05 9.336E+00
 ETOT  3  -32.163962728739    -1.732E-03 1.509E-05 1.224E+01
 ETOT  4  -32.164273873999    -3.111E-04 1.656E-06 4.013E+00
 ETOT  5  -32.164281198956    -7.325E-06 2.761E-07 4.779E-01
 ETOT  6  -32.164284895901    -3.697E-06 1.620E-07 5.937E-02
 ETOT  7  -32.164284939622    -4.372E-08 1.878E-07 1.315E-02
 ETOT  8  -32.164285058070    -1.184E-07 1.433E-07 3.214E-03

 At SCF step    8, etot is converged : 
  for the second time, diff in etot=  1.184E-07 < toldfe=  1.000E-06

 Cartesian components of stress tensor (hartree/bohr^3)
  sigma(1 1)=  2.78443176E-07  sigma(3 2)=  0.00000000E+00
  sigma(2 2)=  2.78443189E-07  sigma(3 1)=  0.00000000E+00
  sigma(3 3)= -5.21408781E-07  sigma(2 1)=  0.00000000E+00

 Integrated electronic density in atomic spheres:
 ------------------------------------------------
 Atom  Sphere_radius  Integrated_density
    1        2.00000          2.92960593
    2        2.00000          3.83456355
    3        2.00000          3.83456355

---OUTPUT-----------------------------------------------------------------------

 Cartesian coordinates (xcart) [bohr]
  2.30941492799068E-27  1.33334133035279E-27  3.21675744272089E-19
  3.02843171373029E+00  1.74846586513562E+00  3.04043815027702E+00
  3.02843171373029E+00  1.74846586513562E+00 -3.04043815027702E+00
 Reduced coordinates (xred)
  5.08385229562039E-28  2.54192614782974E-28  8.36471390342964E-21
  6.66666666666667E-01  3.33333333333333E-01  7.90622100702380E-02
  6.66666666666667E-01  3.33333333333333E-01 -7.90622100702380E-02
 Cartesian forces (fcart) [Ha/bohr]; max,rms= 7.12429E-05 3.35842E-05 (free atoms)
 -0.00000000000000E+00 -0.00000000000000E+00 -0.00000000000000E+00
 -0.00000000000000E+00 -0.00000000000000E+00  7.12429377579002E-05
 -0.00000000000000E+00 -0.00000000000000E+00 -7.12429377579002E-05
 Reduced forces (fred)
  0.00000000000000E+00 -0.00000000000000E+00  0.00000000000000E+00
 -0.00000000000000E+00 -0.00000000000000E+00 -2.73973805822652E-03
  0.00000000000000E+00 -0.00000000000000E+00  2.73973805822652E-03
 Scale of Primitive Cell (acell) [bohr]
  6.05686342746059E+00  6.05686342746059E+00  3.84562757299085E+01
 Real space primitive translations (rprimd) [bohr]
  6.05686342746059E+00  0.00000000000000E+00  0.00000000000000E+00
 -3.02843171373029E+00  5.24539759540687E+00  0.00000000000000E+00
  0.00000000000000E+00  0.00000000000000E+00  3.84562757299085E+01
 Unitary Cell Volume (ucvol) [Bohr^3]=  1.22178114025577E+03
 Angles (23,13,12)= [degrees]
  9.00000000000000E+01  9.00000000000000E+01  1.20000000000127E+02
 Lengths [Bohr]
  6.05686342746059E+00  6.05686342743730E+00  3.84562757299085E+01
 Stress tensor in cartesian coordinates (strten) [Ha/bohr^3]
  2.78443175564646E-07  0.00000000000000E+00  0.00000000000000E+00
  0.00000000000000E+00  2.78443188826607E-07  0.00000000000000E+00
  0.00000000000000E+00  0.00000000000000E+00 -5.21408780991550E-07
 Total energy (etotal) [Ha]= -3.21642850580703E+01

 Difference of energy with previous step (new-old):
           Absolute (Ha)=-1.59211E-06
           Relative     =-4.94994E-08

--- Iteration: (10/10) Internal Cycle: (1/1)
--------------------------------------------------------------------------------

---SELF-CONSISTENT-FIELD CONVERGENCE--------------------------------------------

     iter   Etot(hartree)      deltaE(h)  residm     vres2
 ETOT  1  -32.164281320104    -3.216E+01 2.256E-06 4.362E-01
 ETOT  2  -32.164284787424    -3.467E-06 2.283E-04 2.130E-01
 ETOT  3  -32.164284656056     1.314E-07 1.289E-06 1.507E-01
 ETOT  4  -32.164283575191     1.081E-06 3.491E-05 2.495E-02
 ETOT  5  -32.164285318646    -1.743E-06 2.388E-06 1.293E-02
 ETOT  6  -32.164285366707    -4.806E-08 2.004E-06 1.542E-03
 ETOT  7  -32.164285372722    -6.015E-09 3.876E-06 3.787E-04

 At SCF step    7, etot is converged : 
  for the second time, diff in etot=  6.015E-09 < toldfe=  1.000E-06

 Cartesian components of stress tensor (hartree/bohr^3)
  sigma(1 1)=  1.13750352E-07  sigma(3 2)=  0.00000000E+00
  sigma(2 2)=  1.13750366E-07  sigma(3 1)=  0.00000000E+00
  sigma(3 3)=  6.88063749E-08  sigma(2 1)=  0.00000000E+00

 Integrated electronic density in atomic spheres:
 ------------------------------------------------
 Atom  Sphere_radius  Integrated_density
    1        2.00000          2.92858153
    2        2.00000          3.83451159
    3        2.00000          3.83451159

---OUTPUT-----------------------------------------------------------------------

 Cartesian coordinates (xcart) [bohr]
  2.30131508760416E-27  1.32866488532522E-27  3.11031225076222E-19
  3.02823534549901E+00  1.74835249188443E+00  3.04085243707607E+00
  3.02823534549901E+00  1.74835249188443E+00 -3.04085243707607E+00
 Reduced coordinates (xred)
  5.06635014576085E-28  2.53317507289990E-28  8.08844299739070E-21
  6.66666666666667E-01  3.33333333333333E-01  7.90781105489936E-02
  6.66666666666667E-01  3.33333333333333E-01 -7.90781105489936E-02
 Cartesian forces (fcart) [Ha/bohr]; max,rms= 1.05324E-04 4.96504E-05 (free atoms)
 -0.00000000000000E+00 -0.00000000000000E+00 -0.00000000000000E+00
 -0.00000000000000E+00 -0.00000000000000E+00  1.05324416588596E-04
 -0.00000000000000E+00 -0.00000000000000E+00 -1.05324416588596E-04
 Reduced forces (fred)
  0.00000000000000E+00 -0.00000000000000E+00  0.00000000000000E+00
 -0.00000000000000E+00 -0.00000000000000E+00 -4.05012217216061E-03
  0.00000000000000E+00 -0.00000000000000E+00  4.05012217216061E-03
 Scale of Primitive Cell (acell) [bohr]
  6.05647069099802E+00  6.05647069099802E+00  3.84537821650668E+01
 Real space primitive translations (rprimd) [bohr]
  6.05647069099802E+00  0.00000000000000E+00  0.00000000000000E+00
 -3.02823534549901E+00  5.24505747565329E+00  0.00000000000000E+00
  0.00000000000000E+00  0.00000000000000E+00  3.84537821650668E+01
 Unitary Cell Volume (ucvol) [Bohr^3]=  1.22154348908729E+03
 Angles (23,13,12)= [degrees]
  9.00000000000000E+01  9.00000000000000E+01  1.20000000000127E+02
 Lengths [Bohr]
  6.05647069099802E+00  6.05647069097473E+00  3.84537821650668E+01
 Stress tensor in cartesian coordinates (strten) [Ha/bohr^3]
  1.13750352494701E-07  0.00000000000000E+00  0.00000000000000E+00
  0.00000000000000E+00  1.13750365760132E-07  0.00000000000000E+00
  0.00000000000000E+00  0.00000000000000E+00  6.88063749078056E-08
 Total energy (etotal) [Ha]= -3.21642853727215E+01

 Difference of energy with previous step (new-old):
           Absolute (Ha)=-3.14651E-07
           Relative     =-9.78263E-09

 fconv : WARNING -
  ntime=   10 was not enough Broyd/MD steps to converge gradients: 
  max grad (force/stress) = 1.0532E-04 > tolmxf= 5.0000E-05 ha/bohr (free atoms)

================================================================================

 ----iterations are completed or convergence reached----

 Mean square residual over all n,k,spin=   3.9122E-08; max=  3.8756E-06
 reduced coordinates (array xred) for    3 atoms
       0.000000000000      0.000000000000      0.000000000000
       0.666666666667      0.333333333333      0.079078110549
       0.666666666667      0.333333333333     -0.079078110549
 rms dE/dt=  1.9092E-03; max dE/dt=  4.0501E-03; dE/dt below (all hartree)
    1       0.000000000000      0.000000000000      0.000000000000
    2       0.000000000000      0.000000000000     -0.004050122172
    3       0.000000000000      0.000000000000      0.004050122172

 cartesian coordinates (angstrom) at end:
    1      0.00000000000000     0.00000000000000     0.00000000000000
    2      1.60247312708474     0.92518829128677     1.60914980438601
    3      1.60247312708474     0.92518829128677    -1.60914980438601

 cartesian forces (hartree/bohr) at end:
    1     -0.00000000000000    -0.00000000000000    -0.00000000000000
    2     -0.00000000000000    -0.00000000000000     0.00010532441659
    3     -0.00000000000000    -0.00000000000000    -0.00010532441659
 frms,max,avg= 4.9650406E-05 1.0532442E-04   0.000E+00  0.000E+00  0.000E+00 h/b

 cartesian forces (eV/Angstrom) at end:
    1     -0.00000000000000    -0.00000000000000    -0.00000000000000
    2     -0.00000000000000    -0.00000000000000     0.00541599880550
    3     -0.00000000000000    -0.00000000000000    -0.00541599880550
 frms,max,avg= 2.5531263E-03 5.4159988E-03   0.000E+00  0.000E+00  0.000E+00 e/A
 length scales=  6.056470690998  6.056470690998 38.453782165067 bohr
              =  3.204946254169  3.204946254169 20.348865105838 angstroms
 prteigrs : about to open file mos2_3o_EIG
 Fermi (or HOMO) energy (hartree) =  -0.16064   Average Vxc (hartree)=  -0.14298
 Eigenvalues (hartree) for nkpt=  10  k points:
 kpt#   1, nband= 10, wtk=  0.01563, kpt=  0.0000  0.0000  0.5000 (reduced coord)
  -0.66793   -0.62744   -0.35580   -0.24431   -0.24431   -0.22162   -0.20393   -0.20393
  -0.16255   -0.05476
 prteigrs : prtvol=0 or 1, do not print more k-points.


--------------------------------------------------------------------------------
 Components of total free energy (in Hartree) :

    Kinetic energy  =  1.56148355604523E+01
    Hartree energy  =  1.16700113612219E+02
    XC energy       = -1.08354189024687E+01
    Ewald energy    =  9.06069793937855E+01
    PspCore energy  =  1.58065857438997E+00
    Loc. psp. energy= -2.40024963123686E+02
    NL   psp  energy= -5.80649048741385E+00
    >>>>>>>>> Etotal= -3.21642853727215E+01

 Other information on the energy :
    Total energy(eV)= -8.75234715859709E+02 ; Band energy (Ha)=  -6.0549555758E+00
--------------------------------------------------------------------------------
 rms coord change=  8.1029E-05   atom, delta coord (reduced):
     1        0.000000000000      0.000000000000      0.000000000000
     2        0.000000000000      0.000000000000     -0.000171889451
     3        0.000000000000      0.000000000000      0.000171889451

 Cartesian components of stress tensor (hartree/bohr^3)
  sigma(1 1)=  1.13750352E-07  sigma(3 2)=  0.00000000E+00
  sigma(2 2)=  1.13750366E-07  sigma(3 1)=  0.00000000E+00
  sigma(3 3)=  6.88063749E-08  sigma(2 1)=  0.00000000E+00

-Cartesian components of stress tensor (GPa)         [Pressure= -2.9059E-03 GPa]
- sigma(1 1)=  3.34665035E-03  sigma(3 2)=  0.00000000E+00
- sigma(2 2)=  3.34665074E-03  sigma(3 1)=  0.00000000E+00
- sigma(3 3)=  2.02435310E-03  sigma(2 1)=  0.00000000E+00

== END DATASET(S) ==============================================================
================================================================================
  
 -outvars: echo values of variables after computation  --------
            acell      6.0564706910E+00  6.0564706910E+00  3.8453782165E+01 Bohr
              amu      9.59400000E+01  3.20660000E+01
           diemac      1.20000000E+01
          dilatmx      1.05000000E+00
             ecut      1.70000000E+01 Hartree
           ecutsm      5.00000000E-01 Hartree
           etotal     -3.2164285373E+01
            fcart     -0.0000000000E+00 -0.0000000000E+00 -0.0000000000E+00
                      -0.0000000000E+00 -0.0000000000E+00  1.0532441659E-04
                      -0.0000000000E+00 -0.0000000000E+00 -1.0532441659E-04
-          fftalg         112
           ionmov           2
           istwfk        4    0    0    0    5    0    0    0    0    0
              kpt      0.00000000E+00  0.00000000E+00  5.00000000E-01
                       1.25000000E-01  0.00000000E+00  5.00000000E-01
                       2.50000000E-01  0.00000000E+00  5.00000000E-01
                       3.75000000E-01  0.00000000E+00  5.00000000E-01
                       5.00000000E-01  0.00000000E+00  5.00000000E-01
                       1.25000000E-01  1.25000000E-01  5.00000000E-01
                       2.50000000E-01  1.25000000E-01  5.00000000E-01
                       3.75000000E-01  1.25000000E-01  5.00000000E-01
                       2.50000000E-01  2.50000000E-01  5.00000000E-01
                       3.75000000E-01  2.50000000E-01  5.00000000E-01
         kptrlatt        8    0    0      0    8    0      0    0    1
          kptrlen      4.76210985E+01
P           mkmem          10
            natom           3
            nband          10
            ngfft          24      24     150
             nkpt          10
            nstep          10
             nsym          12
            ntime          10
           ntypat           2
              occ      2.000000  2.000000  2.000000  2.000000  2.000000  2.000000
                       2.000000  2.000000  2.000000  0.000000
          optcell           1
            rprim      1.0000000000E+00  0.0000000000E+00  0.0000000000E+00
                      -5.0000000000E-01  8.6602540378E-01  0.0000000000E+00
                       0.0000000000E+00  0.0000000000E+00  1.0000000000E+00
           shiftk      0.00000000E+00  0.00000000E+00  5.00000000E-01
          spgroup         187
           strten      1.1375035249E-07  1.1375036576E-07  6.8806374908E-08
                       0.0000000000E+00  0.0000000000E+00  0.0000000000E+00
           symrel      1  0  0   0  1  0   0  0  1       0 -1  0  -1  0  0   0  0 -1
                      -1 -1  0   1  0  0   0  0 -1      -1  0  0   1  1  0   0  0  1
                       0  1  0  -1 -1  0   0  0  1       1  1  0   0 -1  0   0  0 -1
                       1  0  0   0  1  0   0  0 -1       0 -1  0  -1  0  0   0  0  1
                      -1 -1  0   1  0  0   0  0  1      -1  0  0   1  1  0   0  0 -1
                       0  1  0  -1 -1  0   0  0 -1       1  1  0   0 -1  0   0  0  1
           toldfe      1.00000000E-06 Hartree
            typat      1  2  2
              wtk        0.01563    0.09375    0.09375    0.09375    0.04688    0.09375
                         0.18750    0.18750    0.09375    0.09375
           xangst      1.2178034941E-27  7.0309917517E-28  1.6459063547E-19
                       1.6024731271E+00  9.2518829129E-01  1.6091498044E+00
                       1.6024731271E+00  9.2518829129E-01 -1.6091498044E+00
            xcart      2.3013150876E-27  1.3286648853E-27  3.1103122508E-19
                       3.0282353455E+00  1.7483524919E+00  3.0408524371E+00
                       3.0282353455E+00  1.7483524919E+00 -3.0408524371E+00
             xred      5.0663501458E-28  2.5331750729E-28  8.0884429974E-21
                       6.6666666667E-01  3.3333333333E-01  7.9078110549E-02
                       6.6666666667E-01  3.3333333333E-01 -7.9078110549E-02
            znucl       42.00000   16.00000

================================================================================

- Total cpu        time (s,m,h):        431.6        7.19      0.120
- Total wall clock time (s,m,h):        205.1        3.42      0.057
-
- For major independent code sections, cpu and wall times (sec),
-  as well as % of the time and number of calls for node 0-
-<BEGIN_TIMER mpi_nprocs = 1, omp_nthreads = 1, mpi_rank = 0>
- cpu_time =          431.6, wall_time =          205.1
-
- routine                        cpu     %       wall     %      number of calls  Gflops    Speedup Efficacity
-                                                                  (-1=no count)
- fourwf%(pot)                 221.672  51.4    108.736  53.0          54458      -1.00        2.04       2.04
- nonlop(apply)                 89.140  20.7     44.958  21.9          54458      -1.00        1.98       1.98
- projbd                        42.288   9.8     21.035  10.3          87116      -1.00        2.01       2.01
- fourwf%(den)                  32.021   7.4      9.088   4.4           8010      -1.00        3.52       3.52
- vtowfk(ssdiag)                 9.055   2.1      2.690   1.3             -1      -1.00        3.37       3.37
- nonlop(forstr)                 3.636   0.8      2.575   1.3            900      -1.00        1.41       1.41
- getghc-other                   3.244   0.8      1.594   0.8             -1      -1.00        2.04       2.04
- pspini                         2.216   0.5      2.179   1.1              1      -1.00        1.02       1.02
- others (105)                   8.404   1.9      3.891   1.9             -1      -1.00        2.16       2.16
-<END_TIMER>
-
- subtotal                     411.676  95.4    196.746  95.9                                  2.09       2.09

- For major independent code sections, cpu and wall times (sec),
- as well as % of the total time and number of calls 

-<BEGIN_TIMER mpi_nprocs = 1, omp_nthreads = 1, mpi_rank = world>
- cpu_time =         431.6, wall_time =         205.1
-
- routine                         cpu     %       wall     %      number of calls Gflops    Speedup Efficacity
-                                                                  (-1=no count)
- fourwf%(pot)                 221.672  51.4    108.736  53.0          54458      -1.00        2.04       2.04
- nonlop(apply)                 89.140  20.7     44.958  21.9          54458      -1.00        1.98       1.98
- projbd                        42.288   9.8     21.035  10.3          87116      -1.00        2.01       2.01
- fourwf%(den)                  32.021   7.4      9.088   4.4           8010      -1.00        3.52       3.52
- vtowfk(ssdiag)                 9.055   2.1      2.690   1.3             -1      -1.00        3.37       3.37
- nonlop(forstr)                 3.636   0.8      2.575   1.3            900      -1.00        1.41       1.41
- getghc-other                   3.244   0.8      1.594   0.8             -1      -1.00        2.04       2.04
- pspini                         2.216   0.5      2.179   1.1              1      -1.00        1.02       1.02
- others (105)                   8.404   1.9      3.891   1.9             -1      -1.00        2.16       2.16
-<END_TIMER>

- subtotal                     411.676  95.4    196.746  95.9                                  2.09       2.09

================================================================================

 Suggested references for the acknowledgment of ABINIT usage.

 The users of ABINIT have little formal obligations with respect to the ABINIT group
 (those specified in the GNU General Public License, http://www.gnu.org/copyleft/gpl.txt).
 However, it is common practice in the scientific literature,
 to acknowledge the efforts of people that have made the research possible.
 In this spirit, please find below suggested citations of work written by ABINIT developers,
 corresponding to implementations inside of ABINIT that you have used in the present run.
 Note also that it will be of great value to readers of publications presenting these results,
 to read papers enabling them to understand the theoretical formalism and details
 of the ABINIT implementation.
 For information on why they are suggested, see also http://www.abinit.org/about/?text=acknowledgments.
-
- [1] Recent developments in the ABINIT software package.
- Computer Phys. Comm. 205, 106 (2016).
- X.Gonze, F.Jollet, F.Abreu Araujo, D.Adams, B.Amadon, T.Applencourt,
- C.Audouze, J.-M.Beuken, J.Bieder, A.Bokhanchuk, E.Bousquet, F.Bruneval
- D.Caliste, M.Cote, F.Dahm, F.Da Pieve, M.Delaveau, M.Di Gennaro,
- B.Dorado, C.Espejo, G.Geneste, L.Genovese, A.Gerossier, M.Giantomassi,
- Y.Gillet, D.R.Hamann, L.He, G.Jomard, J.Laflamme Janssen, S.Le Roux,
- A.Levitt, A.Lherbier, F.Liu, I.Lukacevic, A.Martin, C.Martins,
- M.J.T.Oliveira, S.Ponce, Y.Pouillon, T.Rangel, G.-M.Rignanese,
- A.H.Romero, B.Rousseau, O.Rubel, A.A.Shukri, M.Stankovski, M.Torrent,
- M.J.Van Setten, B.Van Troeye, M.J.Verstraete, D.Waroquier, J.Wiktor,
- B.Xue, A.Zhou, J.W.Zwanziger.
- Comment : the fourth generic paper describing the ABINIT project.
- Note that a version of this paper, that is not formatted for Computer Phys. Comm. 
- is available at http://www.abinit.org/about/ABINIT16.pdf .
- The licence allows the authors to put it on the Web.
-
- [2] Optimized norm-conserving Vanderbilt pseudopotentials.
- D.R. Hamann, Phys. Rev. B 88, 085117 (2013).
- Comment: Some pseudopotential generated using the ONCVPSP code were used.
-
- [3] ABINIT : First-principles approach of materials and nanosystem properties.
- Computer Phys. Comm. 180, 2582-2615 (2009).
- X. Gonze, B. Amadon, P.-M. Anglade, J.-M. Beuken, F. Bottin, P. Boulanger, F. Bruneval,
- D. Caliste, R. Caracas, M. Cote, T. Deutsch, L. Genovese, Ph. Ghosez, M. Giantomassi
- S. Goedecker, D.R. Hamann, P. Hermet, F. Jollet, G. Jomard, S. Leroux, M. Mancini, S. Mazevet,
- M.J.T. Oliveira, G. Onida, Y. Pouillon, T. Rangel, G.-M. Rignanese, D. Sangalli, R. Shaltaf,
- M. Torrent, M.J. Verstraete, G. Zerah, J.W. Zwanziger
- Comment : the third generic paper describing the ABINIT project.
- Note that a version of this paper, that is not formatted for Computer Phys. Comm. 
- is available at http://www.abinit.org/about/ABINIT_CPC_v10.pdf .
- The licence allows the authors to put it on the Web.
-
- [4] A brief introduction to the ABINIT software package.
- Z. Kristallogr. 220, 558-562 (2005).
- X. Gonze, G.-M. Rignanese, M. Verstraete, J.-M. Beuken, Y. Pouillon, R. Caracas, F. Jollet,
- M. Torrent, G. Zerah, M. Mikami, Ph. Ghosez, M. Veithen, J.-Y. Raty, V. Olevano, F. Bruneval,
- L. Reining, R. Godby, G. Onida, D.R. Hamann, and D.C. Allan.
- Comment : the second generic paper describing the ABINIT project. Note that this paper
- should be cited especially if you are using the GW part of ABINIT, as several authors
- of this part are not in the list of authors of the first or third paper.
- The .pdf of the latter paper is available at http://www.abinit.org/about/zfk_0505-06_558-562.pdf.
- Note that it should not redistributed (Copyright by Oldenburg Wissenshaftverlag,
- the licence allows the authors to put it on the Web).
-
- And optionally:
-
- [5] First-principles computation of material properties : the ABINIT software project. 
- X. Gonze, J.-M. Beuken, R. Caracas, F. Detraux, M. Fuchs, G.-M. Rignanese, L. Sindic,
- M. Verstraete, G. Zerah, F. Jollet, M. Torrent, A. Roy, M. Mikami, Ph. Ghosez, J.-Y. Raty, D.C. Allan.
- Computational Materials Science 25, 478-492 (2002). http://dx.doi.org/10.1016/S0927-0256(02)00325-7
- Comment : the original paper describing the ABINIT project.
-
- Proc.   0 individual time (sec): cpu=        431.6  wall=        205.1

================================================================================

 Calculation completed.
.Delivered  36 WARNINGs and   2 COMMENTs to log file.
+Overall time at end (sec) : cpu=        431.6  wall=        205.1
