
.Version 8.4.1 of ABINIT 
.(sequential version, prepared for a x86_64_linux_gnu7.0 computer) 

.Copyright (C) 1998-2017 ABINIT group . 
 ABINIT comes with ABSOLUTELY NO WARRANTY.
 It is free software, and you are welcome to redistribute it
 under certain conditions (GNU General Public License,
 see ~abinit/COPYING or http://www.gnu.org/copyleft/gpl.txt).

 ABINIT is a project of the Universite Catholique de Louvain,
 Corning Inc. and other collaborators, see ~abinit/doc/developers/contributors.txt .
 Please read ~abinit/doc/users/acknowledgments.html for suggested
 acknowledgments of the ABINIT effort.
 For more information, see http://www.abinit.org .

.Starting date : Wed  9 Aug 2017.
- ( at 11h25 )
  
- input  file    -> mos2_5.in
- output file    -> mos2_5.out
- root for input  files -> mos2_5i
- root for output files -> mos2_5o


 DATASET    1 : space group P-6 m 2 (#187); Bravais hP (primitive hexag.)
================================================================================
 Values of the parameters that define the memory need for DATASET  1.
     intxc =       0    ionmov =       0      iscf =       7    lmnmax =       6
     lnmax =       6     mgfft =      72  mpssoang =       3    mqgrid =    3565
     natom =       3  nloc_mem =       1    nspden =       1   nspinor =       1
    nsppol =       1      nsym =      12    n1xccc =    2501    ntypat =       2
    occopt =       1   xclevel =       1
-    mband =          10        mffmem =           1         mkmem =           8
       mpw =        2069          nfft =       41472          nkpt =           8
================================================================================
P This job should need less than                      16.243 Mbytes of memory.
  Rough estimation (10% accuracy) of disk space for files :
_ WF disk file :      2.528 Mbytes ; DEN or POT disk file :      0.318 Mbytes.
================================================================================


 DATASET    2 : space group P-6 m 2 (#187); Bravais hP (primitive hexag.)
================================================================================
 Values of the parameters that define the memory need for DATASET  2.
     intxc =       0    ionmov =       0      iscf =      -2    lmnmax =       6
     lnmax =       6     mgfft =      72  mpssoang =       3    mqgrid =    3565
     natom =       3  nloc_mem =       1    nspden =       1   nspinor =       1
    nsppol =       1      nsym =      12    n1xccc =    2501    ntypat =       2
    occopt =       1   xclevel =       1
-    mband =          16        mffmem =           1         mkmem =          96
       mpw =        2067          nfft =       41472          nkpt =          96
================================================================================
P This job should need less than                      59.441 Mbytes of memory.
  Rough estimation (10% accuracy) of disk space for files :
_ WF disk file :     48.447 Mbytes ; DEN or POT disk file :      0.318 Mbytes.
================================================================================

--------------------------------------------------------------------------------
------------- Echo of variables that govern the present computation ------------
--------------------------------------------------------------------------------
-
- outvars: echo of selected default values                                      
-   iomode0 =  0 , fftalg0 =112 , wfoptalg0 =  0
-
- outvars: echo of global parameters not present in the input file              
-  max_nthreads =    0
-
 -outvars: echo values of preprocessed input variables --------
            acell      6.0498121423E+00  6.0498121423E+00  1.9205752833E+01 Bohr
              amu      9.59400000E+01  3.20660000E+01
           diemac      1.20000000E+01
             ecut      1.70000000E+01 Hartree
           enunit1          0
           enunit2          1
-          fftalg         112
           getden1          0
           getden2         -1
             iscf1          7
             iscf2         -2
           istwfk2       2    0    0    0    0    0    0    0    0    0
                         0    0    0    0    0    0    0    0    0    0
                         0    0    0    0    0    0    0    0    0    0
                         0    0    0    0    0    3    0    0    0    0
                         0    0    0    0    0    0    0    0    0    0
                       outvar_i_n : Printing only first  50 k-points.
           jdtset        1    2
              kpt1     0.00000000E+00  0.00000000E+00  1.25000000E-01
                       2.50000000E-01  0.00000000E+00  1.25000000E-01
                       5.00000000E-01  0.00000000E+00  1.25000000E-01
                       2.50000000E-01  2.50000000E-01  1.25000000E-01
                       0.00000000E+00  0.00000000E+00  3.75000000E-01
                       2.50000000E-01  0.00000000E+00  3.75000000E-01
                       5.00000000E-01  0.00000000E+00  3.75000000E-01
                       2.50000000E-01  2.50000000E-01  3.75000000E-01
              kpt2     0.00000000E+00  0.00000000E+00  0.00000000E+00
                       1.42857143E-02  0.00000000E+00  0.00000000E+00
                       2.85714286E-02  0.00000000E+00  0.00000000E+00
                       4.28571429E-02  0.00000000E+00  0.00000000E+00
                       5.71428571E-02  0.00000000E+00  0.00000000E+00
                       7.14285714E-02  0.00000000E+00  0.00000000E+00
                       8.57142857E-02  0.00000000E+00  0.00000000E+00
                       1.00000000E-01  0.00000000E+00  0.00000000E+00
                       1.14285714E-01  0.00000000E+00  0.00000000E+00
                       1.28571429E-01  0.00000000E+00  0.00000000E+00
                       1.42857143E-01  0.00000000E+00  0.00000000E+00
                       1.57142857E-01  0.00000000E+00  0.00000000E+00
                       1.71428571E-01  0.00000000E+00  0.00000000E+00
                       1.85714286E-01  0.00000000E+00  0.00000000E+00
                       2.00000000E-01  0.00000000E+00  0.00000000E+00
                       2.14285714E-01  0.00000000E+00  0.00000000E+00
                       2.28571429E-01  0.00000000E+00  0.00000000E+00
                       2.42857143E-01  0.00000000E+00  0.00000000E+00
                       2.57142857E-01  0.00000000E+00  0.00000000E+00
                       2.71428571E-01  0.00000000E+00  0.00000000E+00
                       2.85714286E-01  0.00000000E+00  0.00000000E+00
                       3.00000000E-01  0.00000000E+00  0.00000000E+00
                       3.14285714E-01  0.00000000E+00  0.00000000E+00
                       3.28571429E-01  0.00000000E+00  0.00000000E+00
                       3.42857143E-01  0.00000000E+00  0.00000000E+00
                       3.57142857E-01  0.00000000E+00  0.00000000E+00
                       3.71428571E-01  0.00000000E+00  0.00000000E+00
                       3.85714286E-01  0.00000000E+00  0.00000000E+00
                       4.00000000E-01  0.00000000E+00  0.00000000E+00
                       4.14285714E-01  0.00000000E+00  0.00000000E+00
                       4.28571429E-01  0.00000000E+00  0.00000000E+00
                       4.42857143E-01  0.00000000E+00  0.00000000E+00
                       4.57142857E-01  0.00000000E+00  0.00000000E+00
                       4.71428571E-01  0.00000000E+00  0.00000000E+00
                       4.85714286E-01  0.00000000E+00  0.00000000E+00
                       5.00000000E-01  0.00000000E+00  0.00000000E+00
                       4.91666667E-01  1.66666667E-02  0.00000000E+00
                       4.83333333E-01  3.33333333E-02  0.00000000E+00
                       4.75000000E-01  5.00000000E-02  0.00000000E+00
                       4.66666667E-01  6.66666667E-02  0.00000000E+00
                       4.58333333E-01  8.33333333E-02  0.00000000E+00
                       4.50000000E-01  1.00000000E-01  0.00000000E+00
                       4.41666667E-01  1.16666667E-01  0.00000000E+00
                       4.33333333E-01  1.33333333E-01  0.00000000E+00
                       4.25000000E-01  1.50000000E-01  0.00000000E+00
                       4.16666667E-01  1.66666667E-01  0.00000000E+00
                       4.08333333E-01  1.83333333E-01  0.00000000E+00
                       4.00000000E-01  2.00000000E-01  0.00000000E+00
                       3.91666667E-01  2.16666667E-01  0.00000000E+00
                       3.83333333E-01  2.33333333E-01  0.00000000E+00
                       outvar_i_n : Printing only first  50 k-points.
           kptopt1          1
           kptopt2         -3
         kptrlatt        4    0    0      0    4    0      0    0    4
          kptrlen1     2.41992486E+01
          kptrlen2     3.00000000E+01
P           mkmem1          8
P           mkmem2         96
            natom           3
            nband1         10
            nband2         16
           nbdbuf1          0
           nbdbuf2          2
           ndtset           2
            ngfft          24      24      72
             nkpt1          8
             nkpt2         96
            nstep          10
             nsym          12
           ntypat           2
              occ      2.000000  2.000000  2.000000  2.000000  2.000000  2.000000
                       2.000000  2.000000  2.000000  0.000000
            rprim      1.0000000000E+00  0.0000000000E+00  0.0000000000E+00
                      -5.0000000000E-01  8.6602540378E-01  0.0000000000E+00
                       0.0000000000E+00  0.0000000000E+00  1.0000000000E+00
           shiftk1     0.00000000E+00  0.00000000E+00  5.00000000E-01
           shiftk2     5.00000000E-01  5.00000000E-01  5.00000000E-01
          spgroup         187
           symrel      1  0  0   0  1  0   0  0  1       0 -1  0  -1  0  0   0  0 -1
                      -1 -1  0   1  0  0   0  0 -1      -1  0  0   1  1  0   0  0  1
                       0  1  0  -1 -1  0   0  0  1       1  1  0   0 -1  0   0  0 -1
                       1  0  0   0  1  0   0  0 -1       0 -1  0  -1  0  0   0  0  1
                      -1 -1  0   1  0  0   0  0  1      -1  0  0   1  1  0   0  0 -1
                       0  1  0  -1 -1  0   0  0 -1       1  1  0   0 -1  0   0  0  1
           toldfe1     1.00000000E-06 Hartree
           toldfe2     0.00000000E+00 Hartree
           tolwfr1     0.00000000E+00
           tolwfr2     1.00000000E-12
            typat      1  2  2
              wtk1       0.03125    0.18750    0.09375    0.18750    0.03125    0.18750
                         0.09375    0.18750
              wtk2       1.00000    1.00000    1.00000    1.00000    1.00000    1.00000
                         1.00000    1.00000    1.00000    1.00000    1.00000    1.00000
                         1.00000    1.00000    1.00000    1.00000    1.00000    1.00000
                         1.00000    1.00000    1.00000    1.00000    1.00000    1.00000
                         1.00000    1.00000    1.00000    1.00000    1.00000    1.00000
                         1.00000    1.00000    1.00000    1.00000    1.00000    1.00000
                         1.00000    1.00000    1.00000    1.00000    1.00000    1.00000
                         1.00000    1.00000    1.00000    1.00000    1.00000    1.00000
                         1.00000    1.00000
                       outvars : Printing only first  50 k-points.
           xangst      4.2907621031E-28  2.4772726553E-28 -2.2971526669E-18
                       1.6007113510E+00  9.2417112937E-01  1.6094013741E+00
                       1.6007113510E+00  9.2417112937E-01 -1.6094013741E+00
            xcart      8.1083652762E-28  4.6813668750E-28 -4.3409894258E-18
                       3.0249060712E+00  1.7464303344E+00  3.0413278349E+00
                       3.0249060712E+00  1.7464303344E+00 -3.0413278349E+00
             xred      1.7870230426E-28  8.9351152132E-29 -2.2602547599E-19
                       6.6666666667E-01  3.3333333333E-01  1.5835504400E-01
                       6.6666666667E-01  3.3333333333E-01 -1.5835504400E-01
            znucl       42.00000   16.00000

================================================================================

 chkinp: Checking input parameters for consistency, jdtset=   1.

 chkinp: Checking input parameters for consistency, jdtset=   2.

================================================================================
== DATASET  1 ==================================================================
-   nproc =    1

 Exchange-correlation functional for the present dataset will be:
  LDA: new Teter (4/93) with spin-polarized option - ixc=1
 Citation for XC functional:
  S. Goedecker, M. Teter, J. Huetter, PRB 54, 1703 (1996)

 Real(R)+Recip(G) space primitive vectors, cartesian coordinates (Bohr,Bohr^-1):
 R(1)=  6.0498121  0.0000000  0.0000000  G(1)=  0.1652944  0.0954328  0.0000000
 R(2)= -3.0249061  5.2392910  0.0000000  G(2)=  0.0000000  0.1908655  0.0000000
 R(3)=  0.0000000  0.0000000 19.2057528  G(3)=  0.0000000  0.0000000  0.0520677
 Unit cell volume ucvol=  6.0875949E+02 bohr^3
 Angles (23,13,12)=  9.00000000E+01  9.00000000E+01  1.20000000E+02 degrees

 getcut: wavevector=  0.0000  0.0000  0.0000  ngfft=  24  24  72
         ecut(hartree)=     17.000   => boxcut(ratio)=   2.01981

--- Pseudopotential description ------------------------------------------------
- pspini: atom type   1  psp file is ./42mo.pspnc
- pspatm: opening atomic psp file    ./42mo.pspnc
-  Troullier-Martins psp for element  Mo        Thu Oct 27 17:40:28 EDT 1994
- 42.00000   6.00000    940714                znucl, zion, pspdat
    1    1    2    0      2001   0.00000      pspcod,pspxc,lmax,lloc,mmax,r2well
    0   4.276   7.035    0   2.8930462        l,e99.0,e99.9,nproj,rcpsp
   0.00000000   0.00000000   0.00000000   0.00000000     rms, ekb1, ekb2, epsatm
    1   1.499   2.758    1   3.1973167        l,e99.0,e99.9,nproj,rcpsp
   0.00000000   0.00000000   0.00000000   0.00000000     rms, ekb1, ekb2, epsatm
    2  11.774  15.725    1   2.1974630        l,e99.0,e99.9,nproj,rcpsp
   0.00000000   0.00000000   0.00000000   0.00000000     rms, ekb1, ekb2, epsatm
    2.63204696240783    0.28531456933550    4.53995799271176   rchrg,fchrg,qchrg
 pspatm: epsatm=   89.23647829
         --- l  ekb(1:nproj) -->
             1    0.432305
             2   -4.457359
 pspatm: atomic psp has been read  and splines computed

- pspini: atom type   2  psp file is ./S.psp8
- pspatm: opening atomic psp file    ./S.psp8
- S     ONCVPSP  r_core=  1.45  1.45  1.62
- 16.00000   6.00000    151027                znucl, zion, pspdat
    8   11    2    4       600   0.00000      pspcod,pspxc,lmax,lloc,mmax,r2well
    5.99000000000000    6.00000000000000    0.00000000000000   rchrg,fchrg,qchrg
     nproj     2     2     2
extension_switch     1
 pspatm: epsatm=    9.01629391
         --- l  ekb(1:nproj) -->
             0    6.687458    0.573856
             1    3.355342    0.912754
             2   -8.510942   -1.367258
 pspatm: atomic psp has been read  and splines computed

   1.93084319E+03                                ecore*ucvol(ha*bohr**3)
--------------------------------------------------------------------------------

_setup2: Arith. and geom. avg. npw (full set) are    2039.781    2039.750

================================================================================

     iter   Etot(hartree)      deltaE(h)  residm     vres2
 ETOT  1  -31.452506189682    -3.145E+01 5.766E-02 3.709E+03
 ETOT  2  -31.032825378782     4.197E-01 5.695E-03 6.156E+03
 ETOT  3  -32.158521284267    -1.126E+00 1.452E-02 2.026E+01
 ETOT  4  -32.166191316165    -7.670E-03 2.125E-02 1.207E+01
 ETOT  5  -32.166188414301     2.902E-06 1.336E-03 8.000E+00
 ETOT  6  -32.166987761323    -7.993E-04 7.597E-04 2.641E-01
 ETOT  7  -32.166988076404    -3.151E-07 5.492E-04 1.879E-01
 ETOT  8  -32.167022614797    -3.454E-05 4.354E-04 1.404E-01
 ETOT  9  -32.167040359575    -1.774E-05 3.681E-04 3.959E-03
 ETOT 10  -32.167040887693    -5.281E-07 2.946E-04 9.284E-05

 Cartesian components of stress tensor (hartree/bohr^3)
  sigma(1 1)=  5.46164723E-05  sigma(3 2)=  0.00000000E+00
  sigma(2 2)=  5.46164724E-05  sigma(3 1)=  0.00000000E+00
  sigma(3 3)=  6.04744965E-05  sigma(2 1)=  0.00000000E+00

 Integrated electronic density in atomic spheres:
 ------------------------------------------------
 Atom  Sphere_radius  Integrated_density
    1        2.00000          2.94350666
    2        2.00000          3.82703349
    3        2.00000          3.82703349
================================================================================

 ----iterations are completed or convergence reached----

 Mean square residual over all n,k,spin=   5.7072E-06; max=  2.9464E-04
 reduced coordinates (array xred) for    3 atoms
       0.000000000000      0.000000000000     -0.000000000000
       0.666666666667      0.333333333333      0.158355044000
       0.666666666667      0.333333333333     -0.158355044000
 rms dE/dt=  6.7885E-04; max dE/dt=  1.4401E-03; dE/dt below (all hartree)
    1       0.000000000000      0.000000000000      0.000000000000
    2       0.000000000000      0.000000000000      0.001440064089
    3       0.000000000000      0.000000000000     -0.001440064089

 cartesian coordinates (angstrom) at end:
    1      0.00000000000000     0.00000000000000    -0.00000000000000
    2      1.60071135097810     0.92417112937736     1.60940137409154
    3      1.60071135097810     0.92417112937736    -1.60940137409154

 cartesian forces (hartree/bohr) at end:
    1      0.00000000000000     0.00000000000000    -0.00000000000000
    2     -0.00000000000000    -0.00000000000000    -0.00007498087171
    3     -0.00000000000000    -0.00000000000000     0.00007498087171
 frms,max,avg= 3.5346322E-05 7.4980872E-05   0.000E+00  0.000E+00  0.000E+00 h/b

 cartesian forces (eV/Angstrom) at end:
    1      0.00000000000000     0.00000000000000    -0.00000000000000
    2     -0.00000000000000    -0.00000000000000    -0.00385567112338
    3     -0.00000000000000    -0.00000000000000     0.00385567112338
 frms,max,avg= 1.8175808E-03 3.8556711E-03   0.000E+00  0.000E+00  0.000E+00 e/A
 length scales=  6.049812142300  6.049812142300 19.205752833000 bohr
              =  3.201422701956  3.201422701956 10.163246673036 angstroms
 prteigrs : about to open file mos2_5o_DS1_EIG
 Fermi (or HOMO) energy (hartree) =  -0.09367   Average Vxc (hartree)=  -0.27866
 Eigenvalues (hartree) for nkpt=   8  k points:
 kpt#   1, nband= 10, wtk=  0.03125, kpt=  0.0000  0.0000  0.1250 (reduced coord)
  -0.59958   -0.55913   -0.28733   -0.17515   -0.17515   -0.15308   -0.13478   -0.13478
  -0.09421    0.01700
 prteigrs : prtvol=0 or 1, do not print more k-points.


--------------------------------------------------------------------------------
 Components of total free energy (in Hartree) :

    Kinetic energy  =  1.56228526589046E+01
    Hartree energy  =  2.70677257229168E+01
    XC energy       = -1.08379250882725E+01
    Ewald energy    = -1.85452018326171E+00
    PspCore energy  =  3.17176687511073E+00
    Loc. psp. energy= -5.95182260139106E+01
    NL   psp  energy= -5.81871485918041E+00
    >>>>>>>>> Etotal= -3.21670408876932E+01

 Other information on the energy :
    Total energy(eV)= -8.75309697235334E+02 ; Band energy (Ha)=  -4.8205405880E+00
--------------------------------------------------------------------------------

 Cartesian components of stress tensor (hartree/bohr^3)
  sigma(1 1)=  5.46164723E-05  sigma(3 2)=  0.00000000E+00
  sigma(2 2)=  5.46164724E-05  sigma(3 1)=  0.00000000E+00
  sigma(3 3)=  6.04744965E-05  sigma(2 1)=  0.00000000E+00

-Cartesian components of stress tensor (GPa)         [Pressure= -1.6643E+00 GPa]
- sigma(1 1)=  1.60687182E+00  sigma(3 2)=  0.00000000E+00
- sigma(2 2)=  1.60687182E+00  sigma(3 1)=  0.00000000E+00
- sigma(3 3)=  1.77922081E+00  sigma(2 1)=  0.00000000E+00

================================================================================
== DATASET  2 ==================================================================
-   nproc =    1

 mkfilename : getden/=0, take file _DEN from output of DATASET   1.

 Exchange-correlation functional for the present dataset will be:
  LDA: new Teter (4/93) with spin-polarized option - ixc=1
 Citation for XC functional:
  S. Goedecker, M. Teter, J. Huetter, PRB 54, 1703 (1996)

 Real(R)+Recip(G) space primitive vectors, cartesian coordinates (Bohr,Bohr^-1):
 R(1)=  6.0498121  0.0000000  0.0000000  G(1)=  0.1652944  0.0954328  0.0000000
 R(2)= -3.0249061  5.2392910  0.0000000  G(2)=  0.0000000  0.1908655  0.0000000
 R(3)=  0.0000000  0.0000000 19.2057528  G(3)=  0.0000000  0.0000000  0.0520677
 Unit cell volume ucvol=  6.0875949E+02 bohr^3
 Angles (23,13,12)=  9.00000000E+01  9.00000000E+01  1.20000000E+02 degrees

 getcut: wavevector=  0.0000  0.0000  0.0000  ngfft=  24  24  72
         ecut(hartree)=     17.000   => boxcut(ratio)=   2.01981
--------------------------------------------------------------------------------


================================================================================
 prteigrs : about to open file mos2_5o_DS2_EIG
 Non-SCF case, kpt    1 (  0.00000  0.00000  0.00000), residuals and eigenvalues=
  9.88E-13  4.24E-13  3.58E-13  8.15E-13  3.13E-13  5.34E-13  4.72E-13  4.49E-13
  4.96E-13  5.06E-13  8.42E-13  8.37E-13  7.51E-13  4.89E-13  4.93E-10  6.21E-07
 -5.9956E-01 -5.5910E-01 -2.8729E-01 -1.7497E-01 -1.7497E-01 -1.5295E-01
 -1.3462E-01 -1.3462E-01 -9.4223E-02  1.4662E-02  1.4662E-02  1.8484E-02
  1.8484E-02  9.9024E-02  1.6055E-01  1.9732E-01
  prteigrs : nnsclo,ikpt=   10    1 max resid (incl. the buffer)=  6.21135E-07
 Non-SCF case, kpt    2 (  0.01429  0.00000  0.00000), residuals and eigenvalues=
  4.93E-13  4.20E-13  2.52E-13  5.63E-13  4.71E-13  8.90E-13  6.66E-13  5.01E-13
  2.91E-13  6.03E-13  6.78E-13  8.95E-13  4.79E-13  4.42E-13  5.53E-10  1.69E-07
 -5.9946E-01 -5.5905E-01 -2.8716E-01 -1.7528E-01 -1.7489E-01 -1.5358E-01
 -1.3482E-01 -1.3418E-01 -9.4261E-02  1.4392E-02  1.4824E-02  1.8064E-02
  1.8339E-02  9.9294E-02  1.6103E-01  1.9746E-01
  prteigrs : nnsclo,ikpt=   10    2 max resid (incl. the buffer)=  1.68570E-07
 Non-SCF case, kpt    3 (  0.02857  0.00000  0.00000), residuals and eigenvalues=
  5.66E-13  7.97E-13  5.77E-13  2.25E-13  7.36E-13  5.41E-13  4.23E-13  7.81E-13
  3.58E-13  6.59E-13  8.81E-13  3.75E-13  3.95E-13  6.34E-13  3.98E-09  2.77E-07
 -5.9914E-01 -5.5888E-01 -2.8677E-01 -1.7607E-01 -1.7458E-01 -1.5530E-01
 -1.3539E-01 -1.3300E-01 -9.4371E-02  1.3635E-02  1.5334E-02  1.6891E-02
  1.7949E-02  1.0010E-01  1.6245E-01  1.9787E-01
  prteigrs : nnsclo,ikpt=   10    3 max resid (incl. the buffer)=  2.77207E-07
 Non-SCF case, kpt    4 (  0.04286  0.00000  0.00000), residuals and eigenvalues=
  5.36E-13  6.55E-13  5.06E-13  4.14E-13  5.83E-13  3.29E-13  6.19E-13  3.98E-13
  6.45E-13  4.97E-13  4.47E-13  3.17E-13  9.66E-13  7.61E-13  3.50E-10  1.18E-07
 -5.9862E-01 -5.5860E-01 -2.8612E-01 -1.7735E-01 -1.7401E-01 -1.5776E-01
 -1.3633E-01 -1.3138E-01 -9.4540E-02  1.2574E-02  1.5041E-02  1.6211E-02
  1.7343E-02  1.0138E-01  1.6479E-01  1.9855E-01
  prteigrs : nnsclo,ikpt=   10    4 max resid (incl. the buffer)=  1.17907E-07
 Non-SCF case, kpt    5 (  0.05714  0.00000  0.00000), residuals and eigenvalues=
  8.51E-13  7.73E-13  5.62E-13  7.41E-13  8.38E-13  3.11E-13  3.95E-13  3.69E-13
  6.01E-13  6.18E-13  6.37E-13  3.99E-13  9.70E-13  5.04E-13  2.75E-10  2.85E-08
 -5.9788E-01 -5.5820E-01 -2.8522E-01 -1.7908E-01 -1.7319E-01 -1.6068E-01
 -1.3755E-01 -1.2964E-01 -9.4793E-02  1.1235E-02  1.2635E-02  1.6516E-02
  1.7443E-02  1.0306E-01  1.6800E-01  1.9947E-01
  prteigrs : nnsclo,ikpt=   10    5 max resid (incl. the buffer)=  2.85052E-08
 Non-SCF case, kpt    6 (  0.07143  0.00000  0.00000), residuals and eigenvalues=
  8.18E-13  7.20E-13  5.10E-13  8.38E-13  7.98E-13  2.49E-13  9.08E-13  4.20E-13
  6.31E-13  4.86E-13  7.04E-13  9.44E-13  9.10E-13  4.84E-13  3.47E-10  1.98E-08
 -5.9694E-01 -5.5769E-01 -2.8408E-01 -1.8125E-01 -1.7215E-01 -1.6391E-01
 -1.3910E-01 -1.2801E-01 -9.5154E-02  9.7273E-03  9.8092E-03  1.5484E-02
  1.8958E-02  1.0505E-01  1.7200E-01  2.0061E-01
  prteigrs : nnsclo,ikpt=   10    6 max resid (incl. the buffer)=  1.98221E-08
 Non-SCF case, kpt    7 (  0.08571  0.00000  0.00000), residuals and eigenvalues=
  6.13E-13  8.34E-13  4.89E-13  2.65E-13  9.47E-13  8.23E-13  3.67E-13  4.46E-13
  5.73E-13  5.54E-13  3.50E-13  9.00E-13  9.64E-13  9.37E-13  6.99E-10  1.26E-08
 -5.9580E-01 -5.5707E-01 -2.8271E-01 -1.8382E-01 -1.7090E-01 -1.6734E-01
 -1.4093E-01 -1.2660E-01 -9.5648E-02  6.7083E-03  8.1872E-03  1.4268E-02
  2.0729E-02  1.0728E-01  1.7671E-01  2.0194E-01
  prteigrs : nnsclo,ikpt=   10    7 max resid (incl. the buffer)=  1.26083E-08
 Non-SCF case, kpt    8 (  0.10000  0.00000  0.00000), residuals and eigenvalues=
  5.06E-13  6.91E-13  8.05E-13  3.66E-13  7.17E-13  3.44E-13  8.23E-13  3.97E-13
  9.20E-13  6.58E-13  9.09E-13  8.44E-13  5.69E-13  8.36E-13  1.21E-09  1.29E-08
 -5.9446E-01 -5.5635E-01 -2.8113E-01 -1.8671E-01 -1.7091E-01 -1.6944E-01
 -1.4298E-01 -1.2550E-01 -9.6300E-02  3.4872E-03  6.7644E-03  1.2896E-02
  2.2715E-02  1.0971E-01  1.8199E-01  2.0344E-01
  prteigrs : nnsclo,ikpt=   10    8 max resid (incl. the buffer)=  1.28603E-08
 Non-SCF case, kpt    9 (  0.11429  0.00000  0.00000), residuals and eigenvalues=
  9.41E-13  5.12E-13  3.01E-13  4.88E-13  8.06E-13  5.36E-13  7.83E-13  9.39E-13
  5.21E-13  3.81E-13  6.70E-13  9.85E-13  9.95E-13  7.10E-13  5.16E-10  2.48E-09
 -5.9293E-01 -5.5552E-01 -2.7936E-01 -1.8992E-01 -1.7461E-01 -1.6778E-01
 -1.4524E-01 -1.2481E-01 -9.7156E-02  2.3790E-04  5.5373E-03  1.1389E-02
  2.4872E-02  1.1229E-01  1.8771E-01  2.0510E-01
  prteigrs : nnsclo,ikpt=   10    9 max resid (incl. the buffer)=  2.47531E-09
 Non-SCF case, kpt   10 (  0.12857  0.00000  0.00000), residuals and eigenvalues=
  9.95E-13  4.97E-13  8.60E-13  6.47E-13  4.57E-13  5.44E-13  7.36E-13  4.32E-13
  5.45E-13  4.55E-13  5.56E-13  7.07E-13  3.59E-13  6.04E-13  7.11E-10  2.55E-09
 -5.9121E-01 -5.5459E-01 -2.7743E-01 -1.9335E-01 -1.7838E-01 -1.6590E-01
 -1.4768E-01 -1.2452E-01 -9.8231E-02 -2.8693E-03  4.6731E-03  9.7994E-03
  2.7143E-02  1.1501E-01  1.9370E-01  2.0689E-01
  prteigrs : nnsclo,ikpt=   10   10 max resid (incl. the buffer)=  2.55216E-09
 Non-SCF case, kpt   11 (  0.14286  0.00000  0.00000), residuals and eigenvalues=
  8.95E-13  4.03E-13  9.13E-13  5.26E-13  5.44E-13  7.08E-13  6.62E-13  8.86E-13
  3.69E-13  4.29E-13  3.06E-13  6.76E-13  6.41E-13  3.92E-13  5.32E-10  4.07E-09
 -5.8931E-01 -5.5357E-01 -2.7537E-01 -1.9698E-01 -1.8222E-01 -1.6386E-01
 -1.5023E-01 -1.2467E-01 -9.9553E-02 -5.7820E-03  4.2223E-03  8.1417E-03
  2.9490E-02  1.1785E-01  1.9973E-01  2.0879E-01
  prteigrs : nnsclo,ikpt=   10   11 max resid (incl. the buffer)=  4.07039E-09
 Non-SCF case, kpt   12 (  0.15714  0.00000  0.00000), residuals and eigenvalues=
  5.53E-13  9.74E-13  7.24E-13  5.94E-13  5.45E-13  9.07E-13  5.56E-13  4.96E-13
  2.97E-13  4.06E-13  4.94E-13  3.15E-13  3.41E-13  9.53E-13  3.86E-09  4.48E-09
 -5.8725E-01 -5.5246E-01 -2.7322E-01 -2.0072E-01 -1.8613E-01 -1.6167E-01
 -1.5287E-01 -1.2526E-01 -1.0115E-01 -8.3770E-03  4.2471E-03  6.4161E-03
  3.1925E-02  1.2082E-01  2.0556E-01  2.1076E-01
  prteigrs : nnsclo,ikpt=   10   12 max resid (incl. the buffer)=  4.47939E-09
 Non-SCF case, kpt   13 (  0.17143  0.00000  0.00000), residuals and eigenvalues=
  3.82E-13  4.47E-13  8.72E-13  4.66E-13  2.30E-13  3.72E-13  6.27E-13  4.85E-13
  5.68E-13  6.81E-13  5.52E-13  4.12E-13  7.75E-13  8.28E-13  1.84E-08  1.59E-08
 -5.8503E-01 -5.5127E-01 -2.7104E-01 -2.0448E-01 -1.9013E-01 -1.5934E-01
 -1.5559E-01 -1.2627E-01 -1.0300E-01 -1.0580E-02  4.6686E-03  4.7150E-03
  3.4357E-02  1.2389E-01  2.1088E-01  2.1276E-01
  prteigrs : nnsclo,ikpt=   10   13 max resid (incl. the buffer)=  1.84418E-08
 Non-SCF case, kpt   14 (  0.18571  0.00000  0.00000), residuals and eigenvalues=
  6.53E-13  6.97E-13  5.82E-13  3.02E-13  4.01E-13  7.66E-13  3.02E-13  3.09E-13
  5.39E-13  9.82E-13  3.27E-13  4.35E-13  6.95E-13  5.72E-13  2.99E-09  6.58E-08
 -5.8267E-01 -5.5000E-01 -2.6891E-01 -2.0825E-01 -1.9420E-01 -1.5835E-01
 -1.5691E-01 -1.2763E-01 -1.0511E-01 -1.2361E-02  2.9106E-03  5.6443E-03
  3.6768E-02  1.2708E-01  2.1473E-01  2.1534E-01
  prteigrs : nnsclo,ikpt=   10   14 max resid (incl. the buffer)=  6.58235E-08
 Non-SCF case, kpt   15 (  0.20000  0.00000  0.00000), residuals and eigenvalues=
  4.36E-13  6.98E-13  2.67E-13  6.42E-13  2.52E-13  7.52E-13  6.14E-13  3.51E-13
  4.00E-13  4.94E-13  3.34E-13  7.39E-13  4.84E-13  9.75E-13  1.17E-08  3.26E-07
 -5.8016E-01 -5.4866E-01 -2.6689E-01 -2.1188E-01 -1.9829E-01 -1.6110E-01
 -1.5435E-01 -1.2928E-01 -1.0742E-01 -1.3679E-02  1.2102E-03  7.1004E-03
  3.9147E-02  1.3038E-01  2.1661E-01  2.1862E-01
  prteigrs : nnsclo,ikpt=   10   15 max resid (incl. the buffer)=  3.26051E-07
 Non-SCF case, kpt   16 (  0.21429  0.00000  0.00000), residuals and eigenvalues=
  4.37E-13  5.68E-13  7.66E-13  4.91E-13  2.44E-13  9.62E-13  3.01E-13  6.50E-13
  3.44E-13  3.85E-13  6.42E-13  4.64E-13  9.26E-13  8.27E-13  7.26E-07  8.21E-08
 -5.7753E-01 -5.4725E-01 -2.6510E-01 -2.1530E-01 -2.0244E-01 -1.6385E-01
 -1.5171E-01 -1.3116E-01 -1.0986E-01 -1.4540E-02 -4.3567E-04  8.9512E-03
  4.1440E-02  1.3379E-01  2.1831E-01  2.2047E-01
  prteigrs : nnsclo,ikpt=   10   16 max resid (incl. the buffer)=  7.26100E-07
 Non-SCF case, kpt   17 (  0.22857  0.00000  0.00000), residuals and eigenvalues=
  9.52E-13  6.26E-13  5.11E-13  2.15E-13  7.00E-13  5.42E-13  8.70E-13  5.37E-13
  8.95E-13  6.42E-13  4.41E-13  3.33E-13  8.34E-13  3.41E-13  1.53E-08  7.09E-08
 -5.7479E-01 -5.4579E-01 -2.6366E-01 -2.1841E-01 -2.0660E-01 -1.6656E-01
 -1.4900E-01 -1.3320E-01 -1.1236E-01 -1.4954E-02 -1.9866E-03  1.1224E-02
  4.3663E-02  1.3730E-01  2.1971E-01  2.2082E-01
  prteigrs : nnsclo,ikpt=   10   17 max resid (incl. the buffer)=  7.09070E-08
 Non-SCF case, kpt   18 (  0.24286  0.00000  0.00000), residuals and eigenvalues=
  7.29E-13  8.25E-13  1.94E-13  3.43E-13  3.63E-13  4.86E-13  3.67E-13  9.46E-13
  7.34E-13  5.24E-13  3.44E-13  4.42E-13  2.77E-13  9.21E-13  3.06E-08  1.25E-08
 -5.7196E-01 -5.4428E-01 -2.6273E-01 -2.2110E-01 -2.1081E-01 -1.6921E-01
 -1.4622E-01 -1.3534E-01 -1.1481E-01 -1.4949E-02 -3.3869E-03  1.3765E-02
  4.5806E-02  1.4091E-01  2.1978E-01  2.2069E-01
  prteigrs : nnsclo,ikpt=   10   18 max resid (incl. the buffer)=  3.05997E-08
 Non-SCF case, kpt   19 (  0.25714  0.00000  0.00000), residuals and eigenvalues=
  4.90E-13  7.59E-13  5.45E-13  6.04E-13  6.67E-13  9.85E-13  9.42E-13  4.82E-13
  7.66E-13  4.64E-13  3.66E-13  8.54E-13  5.63E-13  4.27E-13  1.51E-07  8.05E-09
 -5.6905E-01 -5.4274E-01 -2.6244E-01 -2.2324E-01 -2.1501E-01 -1.7179E-01
 -1.4346E-01 -1.3751E-01 -1.1714E-01 -1.4549E-02 -4.7005E-03  1.6557E-02
  4.7806E-02  1.4459E-01  2.1752E-01  2.2107E-01
  prteigrs : nnsclo,ikpt=   10   19 max resid (incl. the buffer)=  1.50661E-07
 Non-SCF case, kpt   20 (  0.27143  0.00000  0.00000), residuals and eigenvalues=
  4.55E-13  5.21E-13  7.00E-13  2.97E-13  2.65E-13  5.13E-13  5.20E-13  7.02E-13
  6.16E-13  4.44E-13  9.05E-13  4.70E-13  9.86E-13  8.07E-13  8.83E-08  1.66E-07
 -5.6608E-01 -5.4118E-01 -2.6287E-01 -2.2481E-01 -2.1919E-01 -1.7428E-01
 -1.4072E-01 -1.3967E-01 -1.1924E-01 -1.3842E-02 -5.8336E-03  1.9535E-02
  4.9702E-02  1.4833E-01  2.1422E-01  2.2074E-01
  prteigrs : nnsclo,ikpt=   10   20 max resid (incl. the buffer)=  1.65846E-07
 Non-SCF case, kpt   21 (  0.28571  0.00000  0.00000), residuals and eigenvalues=
  8.22E-13  8.00E-13  5.88E-13  9.85E-13  4.53E-13  6.58E-13  4.71E-13  3.85E-13
  5.58E-13  3.53E-13  6.22E-13  6.16E-13  5.33E-13  5.34E-13  6.02E-08  1.45E-07
 -5.6308E-01 -5.3960E-01 -2.6402E-01 -2.2582E-01 -2.2334E-01 -1.7668E-01
 -1.4176E-01 -1.3802E-01 -1.2101E-01 -1.2784E-02 -6.8450E-03  2.2637E-02
  5.1444E-02  1.5212E-01  2.1003E-01  2.1967E-01
  prteigrs : nnsclo,ikpt=   10   21 max resid (incl. the buffer)=  1.44951E-07
 Non-SCF case, kpt   22 (  0.30000  0.00000  0.00000), residuals and eigenvalues=
  6.38E-13  5.96E-13  8.90E-13  3.42E-13  4.33E-13  4.44E-13  8.30E-13  2.88E-13
  6.39E-13  5.22E-13  3.54E-13  5.32E-13  4.59E-13  7.02E-13  1.04E-08  1.30E-08
 -5.6007E-01 -5.3803E-01 -2.6583E-01 -2.2744E-01 -2.2640E-01 -1.7898E-01
 -1.4377E-01 -1.3540E-01 -1.2239E-01 -1.1530E-02 -7.7077E-03  2.5772E-02
  5.3050E-02  1.5589E-01  2.0508E-01  2.1794E-01
  prteigrs : nnsclo,ikpt=   10   22 max resid (incl. the buffer)=  1.29710E-08
 Non-SCF case, kpt   23 (  0.31429  0.00000  0.00000), residuals and eigenvalues=
  6.76E-13  4.03E-13  3.02E-13  1.95E-13  6.33E-13  8.82E-13  3.13E-13  3.55E-13
  5.02E-13  9.87E-13  9.68E-13  7.65E-13  5.68E-13  6.17E-12  3.88E-09  3.11E-09
 -5.5707E-01 -5.3647E-01 -2.6813E-01 -2.3143E-01 -2.2670E-01 -1.8113E-01
 -1.4567E-01 -1.3286E-01 -1.2328E-01 -1.0056E-02 -8.3501E-03  2.8969E-02
  5.4529E-02  1.5958E-01  1.9961E-01  2.1575E-01
  prteigrs : nnsclo,ikpt=   10   23 max resid (incl. the buffer)=  3.88096E-09
 Non-SCF case, kpt   24 (  0.32857  0.00000  0.00000), residuals and eigenvalues=
  4.40E-13  5.33E-13  3.09E-13  2.66E-13  9.72E-13  2.93E-13  9.07E-13  7.06E-13
  3.25E-13  7.78E-13  6.81E-13  5.79E-13  5.25E-13  3.91E-12  1.92E-09  3.59E-07
 -5.5411E-01 -5.3494E-01 -2.7076E-01 -2.3529E-01 -2.2689E-01 -1.8318E-01
 -1.4742E-01 -1.3046E-01 -1.2369E-01 -8.8593E-03 -8.4276E-03  3.2117E-02
  5.5861E-02  1.6304E-01  1.9385E-01  2.1332E-01
  prteigrs : nnsclo,ikpt=   10   24 max resid (incl. the buffer)=  3.58944E-07
 Non-SCF case, kpt   25 (  0.34286  0.00000  0.00000), residuals and eigenvalues=
  8.94E-13  9.85E-13  4.08E-13  3.41E-13  3.90E-13  3.87E-13  4.95E-13  7.49E-13
  3.15E-13  4.36E-13  9.65E-13  8.38E-13  6.56E-13  2.09E-12  1.01E-09  4.49E-09
 -5.5122E-01 -5.3345E-01 -2.7359E-01 -2.3900E-01 -2.2708E-01 -1.8509E-01
 -1.4904E-01 -1.2818E-01 -1.2357E-01 -9.1850E-03 -6.6445E-03  3.5162E-02
  5.7065E-02  1.6591E-01  1.8834E-01  2.1085E-01
  prteigrs : nnsclo,ikpt=   10   25 max resid (incl. the buffer)=  4.48640E-09
 Non-SCF case, kpt   26 (  0.35714  0.00000  0.00000), residuals and eigenvalues=
  8.93E-13  8.39E-13  2.22E-13  4.01E-13  3.53E-13  7.53E-13  4.15E-13  9.91E-13
  3.51E-13  5.28E-13  9.68E-13  4.33E-13  4.72E-13  4.06E-12  2.86E-10  4.85E-08
 -5.4842E-01 -5.3202E-01 -2.7649E-01 -2.4251E-01 -2.2735E-01 -1.8685E-01
 -1.5051E-01 -1.2608E-01 -1.2300E-01 -9.3940E-03 -4.7531E-03  3.8089E-02
  5.8136E-02  1.6719E-01  1.8418E-01  2.0846E-01
  prteigrs : nnsclo,ikpt=   10   26 max resid (incl. the buffer)=  4.85070E-08
 Non-SCF case, kpt   27 (  0.37143  0.00000  0.00000), residuals and eigenvalues=
  6.75E-13  8.12E-13  4.01E-13  6.36E-13  5.33E-13  5.11E-13  3.50E-13  2.73E-13
  4.99E-13  8.82E-13  6.21E-13  4.47E-13  3.69E-13  5.50E-11  6.77E-11  3.95E-08
 -5.4575E-01 -5.3066E-01 -2.7937E-01 -2.4582E-01 -2.2772E-01 -1.8846E-01
 -1.5182E-01 -1.2413E-01 -1.2199E-01 -9.3928E-03 -2.7943E-03  4.0815E-02
  5.9097E-02  1.6530E-01  1.8311E-01  2.0627E-01
  prteigrs : nnsclo,ikpt=   10   27 max resid (incl. the buffer)=  3.95476E-08
 Non-SCF case, kpt   28 (  0.38571  0.00000  0.00000), residuals and eigenvalues=
  7.30E-13  9.25E-13  3.83E-13  4.72E-13  2.68E-13  6.40E-13  2.26E-13  5.40E-13
  4.11E-13  8.45E-13  7.73E-13  8.36E-13  3.08E-13  1.11E-12  2.39E-11  3.50E-09
 -5.4324E-01 -5.2940E-01 -2.8215E-01 -2.4886E-01 -2.2819E-01 -1.8997E-01
 -1.5299E-01 -1.2241E-01 -1.2069E-01 -9.3276E-03 -8.0922E-04  4.3367E-02
  5.9892E-02  1.6070E-01  1.8479E-01  2.0437E-01
  prteigrs : nnsclo,ikpt=   10   28 max resid (incl. the buffer)=  3.50210E-09
 Non-SCF case, kpt   29 (  0.40000  0.00000  0.00000), residuals and eigenvalues=
  8.36E-13  6.43E-13  8.79E-13  3.91E-13  2.71E-13  8.86E-13  5.39E-13  5.84E-13
  6.44E-13  9.00E-13  9.99E-13  7.24E-13  2.98E-13  1.02E-12  7.36E-11  8.35E-09
 -5.4092E-01 -5.2824E-01 -2.8476E-01 -2.5163E-01 -2.2874E-01 -1.9127E-01
 -1.5402E-01 -1.2088E-01 -1.1917E-01 -9.2271E-03  1.1217E-03  4.5636E-02
  6.0605E-02  1.5510E-01  1.8757E-01  2.0276E-01
  prteigrs : nnsclo,ikpt=   10   29 max resid (incl. the buffer)=  8.35100E-09
 Non-SCF case, kpt   30 (  0.41429  0.00000  0.00000), residuals and eigenvalues=
  5.23E-13  4.49E-13  3.32E-13  9.21E-13  7.01E-13  3.30E-13  6.57E-13  3.83E-13
  2.75E-13  4.68E-13  7.50E-13  9.72E-13  3.44E-13  1.75E-12  3.10E-10  1.78E-09
 -5.3883E-01 -5.2719E-01 -2.8713E-01 -2.5409E-01 -2.2933E-01 -1.9239E-01
 -1.5489E-01 -1.1953E-01 -1.1753E-01 -8.8844E-03  3.0695E-03  4.7674E-02
  6.1223E-02  1.4948E-01  1.9067E-01  2.0148E-01
  prteigrs : nnsclo,ikpt=   10   30 max resid (incl. the buffer)=  1.77566E-09
 Non-SCF case, kpt   31 (  0.42857  0.00000  0.00000), residuals and eigenvalues=
  4.01E-13  7.01E-13  5.79E-13  4.99E-13  6.09E-13  9.03E-13  4.40E-13  9.73E-13
  8.20E-13  5.90E-13  9.54E-13  8.15E-13  8.71E-13  1.24E-12  5.79E-10  1.94E-09
 -5.3700E-01 -5.2628E-01 -2.8924E-01 -2.5622E-01 -2.2990E-01 -1.9339E-01
 -1.5563E-01 -1.1843E-01 -1.1589E-01 -8.6651E-03  4.8199E-03  4.9382E-02
  6.1696E-02  1.4419E-01  1.9370E-01  2.0048E-01
  prteigrs : nnsclo,ikpt=   10   31 max resid (incl. the buffer)=  1.93918E-09
 Non-SCF case, kpt   32 (  0.44286  0.00000  0.00000), residuals and eigenvalues=
  8.89E-13  3.93E-13  5.59E-13  8.68E-13  7.04E-13  4.25E-13  7.45E-13  8.20E-13
  4.95E-13  8.22E-13  3.39E-13  6.27E-13  8.85E-13  8.65E-13  8.97E-10  1.93E-09
 -5.3545E-01 -5.2552E-01 -2.9103E-01 -2.5799E-01 -2.3043E-01 -1.9418E-01
 -1.5621E-01 -1.1751E-01 -1.1439E-01 -8.3982E-03  6.4408E-03  5.0851E-02
  6.2101E-02  1.3954E-01  1.9648E-01  1.9975E-01
  prteigrs : nnsclo,ikpt=   10   32 max resid (incl. the buffer)=  1.92568E-09
 Non-SCF case, kpt   33 (  0.45714  0.00000  0.00000), residuals and eigenvalues=
  4.80E-13  8.36E-13  5.29E-13  2.27E-13  9.54E-13  4.20E-13  9.45E-13  3.54E-13
  6.77E-13  4.13E-13  5.17E-13  7.48E-13  5.61E-13  7.17E-13  2.95E-09  7.52E-10
 -5.3422E-01 -5.2492E-01 -2.9245E-01 -2.5938E-01 -2.3090E-01 -1.9480E-01
 -1.5667E-01 -1.1680E-01 -1.1312E-01 -8.2004E-03  7.7827E-03  5.1970E-02
  6.2409E-02  1.3569E-01  1.9885E-01  1.9923E-01
  prteigrs : nnsclo,ikpt=   10   33 max resid (incl. the buffer)=  2.94783E-09
 Non-SCF case, kpt   34 (  0.47143  0.00000  0.00000), residuals and eigenvalues=
  4.30E-13  6.39E-13  7.11E-13  7.01E-13  3.48E-13  3.24E-13  6.44E-13  9.47E-13
  3.06E-13  6.47E-13  8.62E-13  7.58E-13  6.91E-13  3.67E-12  2.00E-08  4.84E-09
 -5.3332E-01 -5.2447E-01 -2.9349E-01 -2.6039E-01 -2.3124E-01 -1.9523E-01
 -1.5698E-01 -1.1629E-01 -1.1212E-01 -7.9605E-03  8.8848E-03  5.2822E-02
  6.2642E-02  1.3283E-01  1.9892E-01  2.0071E-01
  prteigrs : nnsclo,ikpt=   10   34 max resid (incl. the buffer)=  1.99979E-08
 Non-SCF case, kpt   35 (  0.48571  0.00000  0.00000), residuals and eigenvalues=
  6.64E-13  8.76E-13  6.77E-13  3.06E-13  2.03E-13  5.57E-13  2.47E-13  4.80E-13
  3.03E-13  6.62E-13  3.02E-13  6.96E-13  5.03E-13  3.83E-12  1.50E-07  6.69E-08
 -5.3277E-01 -5.2420E-01 -2.9412E-01 -2.6100E-01 -2.3146E-01 -1.9550E-01
 -1.5718E-01 -1.1600E-01 -1.1151E-01 -7.8762E-03  9.5198E-03  5.3314E-02
  6.2771E-02  1.3106E-01  1.9875E-01  2.0185E-01
  prteigrs : nnsclo,ikpt=   10   35 max resid (incl. the buffer)=  1.50302E-07
 Non-SCF case, kpt   36 (  0.50000  0.00000  0.00000), residuals and eigenvalues=
  3.87E-13  5.74E-13  3.86E-13  6.79E-13  2.94E-13  2.52E-13  3.89E-13  7.96E-13
  5.36E-13  9.25E-13  9.00E-13  5.73E-13  3.27E-13  5.97E-13  1.57E-09  2.47E-09
 -5.3259E-01 -5.2412E-01 -2.9434E-01 -2.6120E-01 -2.3153E-01 -1.9559E-01
 -1.5724E-01 -1.1590E-01 -1.1130E-01 -7.8601E-03  9.7020E-03  5.3472E-02
  6.2813E-02  1.3046E-01  1.9868E-01  2.0224E-01
  prteigrs : nnsclo,ikpt=   10   36 max resid (incl. the buffer)=  2.47281E-09
 Non-SCF case, kpt   37 (  0.49167  0.01667  0.00000), residuals and eigenvalues=
  4.84E-13  8.58E-13  8.36E-13  6.01E-13  3.75E-13  8.91E-13  5.36E-13  3.27E-13
  4.44E-13  3.61E-13  9.26E-13  9.40E-13  5.90E-13  5.66E-13  2.76E-08  4.88E-09
 -5.3254E-01 -5.2408E-01 -2.9419E-01 -2.6127E-01 -2.3148E-01 -1.9569E-01
 -1.5720E-01 -1.1798E-01 -1.0975E-01 -7.8000E-03  9.7610E-03  5.3676E-02
  6.2309E-02  1.3063E-01  1.9954E-01  2.0275E-01
  prteigrs : nnsclo,ikpt=   10   37 max resid (incl. the buffer)=  2.76079E-08
 Non-SCF case, kpt   38 (  0.48333  0.03333  0.00000), residuals and eigenvalues=
  9.07E-13  5.38E-13  2.60E-13  9.43E-13  4.48E-13  2.47E-13  6.93E-13  5.13E-13
  2.45E-13  3.90E-13  6.29E-13  6.83E-13  6.99E-13  2.52E-11  2.14E-08  1.00E-07
 -5.3239E-01 -5.2397E-01 -2.9375E-01 -2.6147E-01 -2.3129E-01 -1.9593E-01
 -1.5711E-01 -1.2186E-01 -1.0742E-01 -7.5700E-03  1.0002E-02  5.4274E-02
  6.0924E-02  1.3116E-01  2.0207E-01  2.0428E-01
  prteigrs : nnsclo,ikpt=   10   38 max resid (incl. the buffer)=  1.00450E-07
 Non-SCF case, kpt   39 (  0.47500  0.05000  0.00000), residuals and eigenvalues=
  5.27E-13  6.27E-13  9.78E-13  8.08E-13  7.08E-13  4.02E-13  2.18E-13  3.00E-13
  9.28E-13  2.51E-13  8.16E-13  7.86E-13  5.95E-13  3.30E-12  2.11E-08  8.07E-08
 -5.3215E-01 -5.2380E-01 -2.9302E-01 -2.6180E-01 -2.3103E-01 -1.9637E-01
 -1.5697E-01 -1.2650E-01 -1.0536E-01 -7.3521E-03  1.0362E-02  5.5114E-02
  5.8769E-02  1.3200E-01  2.0610E-01  2.0676E-01
  prteigrs : nnsclo,ikpt=   10   39 max resid (incl. the buffer)=  8.07451E-08
 Non-SCF case, kpt   40 (  0.46667  0.06667  0.00000), residuals and eigenvalues=
  4.54E-13  4.56E-13  6.90E-13  5.31E-13  4.76E-13  3.82E-13  3.09E-13  3.00E-13
  3.30E-13  2.89E-13  4.47E-13  7.28E-13  3.37E-13  3.20E-12  7.25E-08  6.10E-08
 -5.3183E-01 -5.2356E-01 -2.9200E-01 -2.6228E-01 -2.3067E-01 -1.9688E-01
 -1.5682E-01 -1.3170E-01 -1.0363E-01 -7.1517E-03  1.0881E-02  5.4682E-02
  5.7590E-02  1.3312E-01  2.1014E-01  2.1149E-01
  prteigrs : nnsclo,ikpt=   10   40 max resid (incl. the buffer)=  7.25056E-08
 Non-SCF case, kpt   41 (  0.45833  0.08333  0.00000), residuals and eigenvalues=
  4.08E-13  7.61E-13  6.51E-13  3.77E-13  6.50E-13  5.30E-13  6.69E-13  4.06E-13
  2.31E-13  8.82E-13  7.23E-13  4.47E-13  6.24E-13  2.34E-12  3.16E-07  1.28E-07
 -5.3142E-01 -5.2326E-01 -2.9070E-01 -2.6290E-01 -2.3020E-01 -1.9744E-01
 -1.5670E-01 -1.3737E-01 -1.0219E-01 -7.0488E-03  1.1621E-02  5.1579E-02
  5.8967E-02  1.3451E-01  2.1431E-01  2.1806E-01
  prteigrs : nnsclo,ikpt=   10   41 max resid (incl. the buffer)=  3.15751E-07
 Non-SCF case, kpt   42 (  0.45000  0.10000  0.00000), residuals and eigenvalues=
  7.48E-13  7.35E-13  1.90E-13  4.59E-13  3.61E-13  7.94E-13  6.55E-13  7.04E-13
  8.96E-13  5.16E-13  9.07E-13  8.07E-13  3.66E-13  7.93E-13  1.46E-07  2.82E-06
 -5.3093E-01 -5.2290E-01 -2.8914E-01 -2.6366E-01 -2.2968E-01 -1.9800E-01
 -1.5665E-01 -1.4345E-01 -1.0097E-01 -7.1271E-03  1.2608E-02  4.7841E-02
  6.0977E-02  1.3614E-01  2.1915E-01  2.2558E-01
  prteigrs : nnsclo,ikpt=   10   42 max resid (incl. the buffer)=  2.81658E-06
 Non-SCF case, kpt   43 (  0.44167  0.11667  0.00000), residuals and eigenvalues=
  7.91E-13  4.86E-13  2.65E-13  8.76E-13  5.21E-13  6.20E-13  8.36E-13  6.37E-13
  6.14E-13  2.73E-13  6.82E-13  5.71E-13  6.14E-13  8.22E-12  3.17E-06  1.37E-05
 -5.3038E-01 -5.2249E-01 -2.8730E-01 -2.6456E-01 -2.2909E-01 -1.9847E-01
 -1.5671E-01 -1.4986E-01 -9.9917E-02 -7.4642E-03  1.3926E-02  4.3939E-02
  6.3250E-02  1.3797E-01  2.2454E-01  2.3392E-01
  prteigrs : nnsclo,ikpt=   10   43 max resid (incl. the buffer)=  1.37219E-05
 Non-SCF case, kpt   44 (  0.43333  0.13333  0.00000), residuals and eigenvalues=
  3.57E-13  8.94E-13  2.68E-13  2.79E-13  2.58E-13  3.42E-13  2.87E-13  3.26E-13
  8.59E-13  6.34E-13  8.32E-13  5.52E-13  5.38E-13  1.10E-12  4.49E-07  5.59E-06
 -5.2976E-01 -5.2205E-01 -2.8520E-01 -2.6560E-01 -2.2847E-01 -1.9887E-01
 -1.5689E-01 -1.5651E-01 -9.8956E-02 -8.0372E-03  1.5547E-02  3.9949E-02
  6.5753E-02  1.4000E-01  2.3025E-01  2.4275E-01
  prteigrs : nnsclo,ikpt=   10   44 max resid (incl. the buffer)=  5.59322E-06
 Non-SCF case, kpt   45 (  0.42500  0.15000  0.00000), residuals and eigenvalues=
  3.58E-13  9.28E-13  3.12E-13  3.07E-13  3.11E-13  3.99E-13  4.09E-13  8.47E-13
  7.70E-13  4.13E-13  9.67E-13  8.41E-13  3.01E-13  1.13E-12  1.42E-06  3.80E-05
 -5.2910E-01 -5.2158E-01 -2.8287E-01 -2.6675E-01 -2.2782E-01 -1.9909E-01
 -1.6333E-01 -1.5724E-01 -9.8026E-02 -8.9232E-03  1.7382E-02  3.6104E-02
  6.8388E-02  1.4220E-01  2.3599E-01  2.5187E-01
  prteigrs : nnsclo,ikpt=   10   45 max resid (incl. the buffer)=  3.79823E-05
 Non-SCF case, kpt   46 (  0.41667  0.16667  0.00000), residuals and eigenvalues=
  6.37E-13  4.79E-13  6.26E-13  8.11E-13  3.64E-13  8.34E-13  7.48E-13  6.45E-13
  4.36E-13  6.40E-13  5.33E-13  7.38E-13  2.77E-13  5.57E-13  3.85E-05  2.68E-05
 -5.2840E-01 -5.2108E-01 -2.8030E-01 -2.6800E-01 -2.2715E-01 -1.9913E-01
 -1.7021E-01 -1.5776E-01 -9.7069E-02 -1.0093E-02  1.9395E-02  3.2475E-02
  7.1079E-02  1.4459E-01  2.4084E-01  2.5267E-01
  prteigrs : nnsclo,ikpt=   10   46 max resid (incl. the buffer)=  3.85161E-05
 Non-SCF case, kpt   47 (  0.40833  0.18333  0.00000), residuals and eigenvalues=
  9.27E-13  4.38E-13  2.95E-13  3.17E-13  8.10E-13  4.64E-13  4.36E-13  3.09E-13
  4.99E-13  5.94E-13  7.50E-13  9.97E-13  4.30E-13  7.15E-13  3.10E-05  5.04E-05
 -5.2768E-01 -5.2056E-01 -2.7751E-01 -2.6931E-01 -2.2654E-01 -1.9897E-01
 -1.7709E-01 -1.5845E-01 -9.6055E-02 -1.1438E-02  2.1598E-02  2.9116E-02
  7.3759E-02  1.4714E-01  2.3874E-01  2.5270E-01
  prteigrs : nnsclo,ikpt=   10   47 max resid (incl. the buffer)=  5.03901E-05
 Non-SCF case, kpt   48 (  0.40000  0.20000  0.00000), residuals and eigenvalues=
  3.74E-13  6.78E-13  3.40E-13  3.03E-13  8.51E-13  8.00E-13  8.96E-13  4.96E-13
  4.70E-13  9.95E-13  5.24E-13  9.34E-13  9.43E-13  1.81E-12  1.31E-08  3.02E-07
 -5.2696E-01 -5.2005E-01 -2.7452E-01 -2.7066E-01 -2.2599E-01 -1.9863E-01
 -1.8387E-01 -1.5931E-01 -9.4971E-02 -1.2997E-02  2.3856E-02  2.6067E-02
  7.6356E-02  1.4985E-01  2.3115E-01  2.5640E-01
  prteigrs : nnsclo,ikpt=   10   48 max resid (incl. the buffer)=  3.01749E-07
 Non-SCF case, kpt   49 (  0.39167  0.21667  0.00000), residuals and eigenvalues=
  9.98E-13  7.68E-13  5.09E-13  3.73E-13  3.32E-13  3.04E-13  3.39E-13  3.13E-13
  5.84E-13  3.50E-13  6.42E-13  3.19E-13  3.15E-13  6.59E-13  8.06E-09  1.17E-06
 -5.2625E-01 -5.1956E-01 -2.7201E-01 -2.7136E-01 -2.2557E-01 -1.9811E-01
 -1.9041E-01 -1.6032E-01 -9.3817E-02 -1.4688E-02  2.3352E-02  2.6106E-02
  7.8776E-02  1.5269E-01  2.2309E-01  2.5783E-01
  prteigrs : nnsclo,ikpt=   10   49 max resid (incl. the buffer)=  1.17303E-06
 Non-SCF case, kpt   50 (  0.38333  0.23333  0.00000), residuals and eigenvalues=
  8.26E-13  8.20E-13  6.63E-13  9.87E-13  3.50E-13  6.57E-13  5.14E-13  8.42E-13
  4.64E-13  5.80E-13  7.70E-13  6.52E-13  4.51E-13  6.79E-13  1.64E-09  1.50E-05
 -5.2557E-01 -5.1909E-01 -2.7330E-01 -2.6807E-01 -2.2537E-01 -1.9744E-01
 -1.9660E-01 -1.6145E-01 -9.2618E-02 -1.6426E-02  2.1073E-02  2.8260E-02
  8.0997E-02  1.5570E-01  2.1515E-01  2.5929E-01
  prteigrs : nnsclo,ikpt=   10   50 max resid (incl. the buffer)=  1.50220E-05
 Non-SCF case, kpt   51 (  0.37500  0.25000  0.00000), residuals and eigenvalues=
  8.20E-13  5.47E-13  4.96E-13  9.60E-13  3.36E-13  3.26E-13  8.73E-13  6.95E-13
  3.97E-13  8.24E-13  3.97E-13  8.38E-13  5.57E-13  8.90E-13  6.53E-10  1.04E-04
 -5.2494E-01 -5.1865E-01 -2.7450E-01 -2.6467E-01 -2.2553E-01 -2.0217E-01
 -1.9665E-01 -1.6265E-01 -9.1388E-02 -1.8180E-02  1.9168E-02  3.0330E-02
  8.2949E-02  1.5886E-01  2.0756E-01  2.6090E-01
  prteigrs : nnsclo,ikpt=   10   51 max resid (incl. the buffer)=  1.03978E-04
 Non-SCF case, kpt   52 (  0.36667  0.26667  0.00000), residuals and eigenvalues=
  3.39E-13  4.09E-13  8.65E-13  5.85E-13  7.14E-13  2.24E-13  4.29E-13  7.45E-13
  7.66E-13  4.93E-13  3.32E-13  5.61E-13  6.34E-13  4.96E-13  8.51E-12  2.51E-05
 -5.2437E-01 -5.1827E-01 -2.7557E-01 -2.6122E-01 -2.2628E-01 -2.0683E-01
 -1.9581E-01 -1.6386E-01 -9.0150E-02 -1.9803E-02  1.7689E-02  3.2216E-02
  8.4599E-02  1.6213E-01  2.0044E-01  2.6171E-01
  prteigrs : nnsclo,ikpt=   10   52 max resid (incl. the buffer)=  2.51110E-05
 Non-SCF case, kpt   53 (  0.35833  0.28333  0.00000), residuals and eigenvalues=
  7.22E-13  6.16E-13  4.99E-13  6.78E-13  2.36E-13  5.13E-13  3.98E-13  8.00E-13
  9.00E-13  4.03E-13  9.26E-13  3.95E-13  7.36E-13  7.25E-13  1.55E-12  6.68E-07
 -5.2389E-01 -5.1794E-01 -2.7643E-01 -2.5784E-01 -2.2783E-01 -2.1021E-01
 -1.9498E-01 -1.6497E-01 -8.9015E-02 -2.1217E-02  1.6617E-02  3.3840E-02
  8.5942E-02  1.6551E-01  1.9395E-01  2.6267E-01
  prteigrs : nnsclo,ikpt=   10   53 max resid (incl. the buffer)=  6.67939E-07
 Non-SCF case, kpt   54 (  0.35000  0.30000  0.00000), residuals and eigenvalues=
  4.85E-13  5.02E-13  2.97E-13  3.36E-13  8.55E-13  2.99E-13  9.10E-13  4.46E-13
  2.17E-13  8.19E-13  6.99E-13  7.19E-13  6.68E-13  4.88E-13  1.44E-11  1.83E-06
 -5.2352E-01 -5.1770E-01 -2.7710E-01 -2.5475E-01 -2.3005E-01 -2.1223E-01
 -1.9428E-01 -1.6592E-01 -8.8117E-02 -2.2365E-02  1.5875E-02  3.5066E-02
  8.6905E-02  1.6889E-01  1.8821E-01  2.6351E-01
  prteigrs : nnsclo,ikpt=   10   54 max resid (incl. the buffer)=  1.83175E-06
 Non-SCF case, kpt   55 (  0.34167  0.31667  0.00000), residuals and eigenvalues=
  3.77E-13  7.39E-13  1.79E-13  8.07E-13  9.76E-13  2.90E-13  4.90E-13  4.65E-13
  3.80E-13  9.64E-13  8.01E-13  5.91E-13  3.14E-13  3.97E-13  1.20E-12  5.86E-07
 -5.2328E-01 -5.1754E-01 -2.7751E-01 -2.5237E-01 -2.3220E-01 -2.1316E-01
 -1.9379E-01 -1.6656E-01 -8.7506E-02 -2.3113E-02  1.5470E-02  3.5848E-02
  8.7482E-02  1.7197E-01  1.8365E-01  2.6405E-01
  prteigrs : nnsclo,ikpt=   10   55 max resid (incl. the buffer)=  5.85987E-07
 Non-SCF case, kpt   56 (  0.33333  0.33333  0.00000), residuals and eigenvalues=
  8.86E-13  6.84E-13  8.93E-13  3.22E-13  8.31E-13  4.12E-13  5.94E-13  5.80E-13
  3.99E-13  5.48E-13  8.98E-13  8.54E-13  3.83E-13  5.11E-13  9.92E-13  4.55E-07
 -5.2320E-01 -5.1749E-01 -2.7766E-01 -2.5143E-01 -2.3314E-01 -2.1340E-01
 -1.9361E-01 -1.6679E-01 -8.7286E-02 -2.3371E-02  1.5339E-02  3.6131E-02
  8.7668E-02  1.7353E-01  1.8159E-01  2.6424E-01
  prteigrs : nnsclo,ikpt=   10   56 max resid (incl. the buffer)=  4.54545E-07
 Non-SCF case, kpt   57 (  0.32500  0.32500  0.00000), residuals and eigenvalues=
  8.26E-13  3.34E-13  5.10E-13  4.09E-13  3.98E-13  3.05E-13  5.89E-13  5.30E-13
  3.79E-13  8.63E-13  3.82E-13  9.08E-13  5.25E-13  6.54E-12  1.19E-12  6.48E-06
 -5.2328E-01 -5.1754E-01 -2.7750E-01 -2.5234E-01 -2.3216E-01 -2.1322E-01
 -1.9380E-01 -1.6654E-01 -8.7509E-02 -2.3091E-02  1.5459E-02  3.5859E-02
  8.7492E-02  1.7225E-01  1.8340E-01  2.6405E-01
  prteigrs : nnsclo,ikpt=   10   57 max resid (incl. the buffer)=  6.47520E-06
 Non-SCF case, kpt   58 (  0.31667  0.31667  0.00000), residuals and eigenvalues=
  3.82E-13  3.20E-13  2.69E-13  8.60E-13  1.45E-13  3.66E-13  2.61E-13  9.60E-13
  7.06E-13  3.37E-13  4.86E-13  4.23E-13  3.14E-13  4.87E-13  1.25E-12  2.80E-06
 -5.2357E-01 -5.1772E-01 -2.7704E-01 -2.5456E-01 -2.2970E-01 -2.1274E-01
 -1.9438E-01 -1.6579E-01 -8.8242E-02 -2.2307E-02  1.5745E-02  3.4929E-02
  8.6943E-02  1.7028E-01  1.8696E-01  2.6344E-01
  prteigrs : nnsclo,ikpt=   10   58 max resid (incl. the buffer)=  2.79795E-06
 Non-SCF case, kpt   59 (  0.30833  0.30833  0.00000), residuals and eigenvalues=
  4.61E-13  3.17E-13  3.33E-13  3.19E-13  4.68E-13  3.06E-13  2.48E-13  7.78E-13
  5.30E-13  3.73E-13  7.55E-13  5.04E-13  3.61E-13  9.50E-13  3.82E-12  1.06E-05
 -5.2406E-01 -5.1802E-01 -2.7622E-01 -2.5727E-01 -2.2653E-01 -2.1198E-01
 -1.9528E-01 -1.6454E-01 -8.9430E-02 -2.1065E-02  1.6213E-02  3.3387E-02
  8.6123E-02  1.6888E-01  1.9106E-01  2.6249E-01
  prteigrs : nnsclo,ikpt=   10   59 max resid (incl. the buffer)=  1.05500E-05
 Non-SCF case, kpt   60 (  0.30000  0.30000  0.00000), residuals and eigenvalues=
  8.81E-13  3.56E-13  3.57E-13  2.22E-13  3.75E-13  9.62E-13  3.74E-13  5.25E-13
  3.69E-13  4.18E-13  4.55E-13  6.69E-13  1.41E-12  4.80E-12  1.81E-10  3.63E-05
 -5.2477E-01 -5.1844E-01 -2.7504E-01 -2.5999E-01 -2.2325E-01 -2.1083E-01
 -1.9642E-01 -1.6288E-01 -9.0991E-02 -1.9453E-02  1.6781E-02  3.1269E-02
  8.5051E-02  1.6825E-01  1.9543E-01  2.6139E-01
  prteigrs : nnsclo,ikpt=   10   60 max resid (incl. the buffer)=  3.62948E-05
 Non-SCF case, kpt   61 (  0.29167  0.29167  0.00000), residuals and eigenvalues=
  5.78E-13  4.28E-13  3.20E-13  3.41E-13  2.56E-13  3.26E-13  3.85E-13  6.74E-13
  7.13E-13  3.97E-13  3.10E-13  4.02E-13  4.16E-13  5.45E-13  2.24E-10  4.56E-05
 -5.2570E-01 -5.1900E-01 -2.7351E-01 -2.6250E-01 -2.2032E-01 -2.0908E-01
 -1.9773E-01 -1.6092E-01 -9.2893E-02 -1.7641E-02  1.7362E-02  2.8632E-02
  8.3752E-02  1.6841E-01  1.9990E-01  2.6030E-01
  prteigrs : nnsclo,ikpt=   10   61 max resid (incl. the buffer)=  4.56056E-05
 Non-SCF case, kpt   62 (  0.28333  0.28333  0.00000), residuals and eigenvalues=
  6.71E-13  5.78E-13  4.14E-13  8.94E-13  4.35E-13  5.82E-13  6.02E-13  4.00E-13
  6.71E-13  6.23E-13  6.87E-13  6.19E-13  5.39E-13  2.71E-12  1.03E-09  3.17E-05
 -5.2687E-01 -5.1969E-01 -2.7161E-01 -2.6467E-01 -2.1811E-01 -2.0652E-01
 -1.9910E-01 -1.5870E-01 -9.5022E-02 -1.5772E-02  1.7939E-02  2.5519E-02
  8.2296E-02  1.6934E-01  2.0438E-01  2.5923E-01
  prteigrs : nnsclo,ikpt=   10   62 max resid (incl. the buffer)=  3.16644E-05
 Non-SCF case, kpt   63 (  0.27500  0.27500  0.00000), residuals and eigenvalues=
  9.82E-13  6.41E-13  5.79E-13  6.83E-13  4.60E-13  5.87E-13  3.22E-13  8.01E-13
  7.41E-13  9.04E-13  5.12E-13  6.25E-13  6.33E-13  5.45E-12  1.79E-09  5.70E-06
 -5.2828E-01 -5.2051E-01 -2.6933E-01 -2.6645E-01 -2.1668E-01 -2.0315E-01
 -2.0045E-01 -1.5629E-01 -9.7281E-02 -1.3991E-02  1.8418E-02  2.2164E-02
  8.0740E-02  1.7093E-01  2.0862E-01  2.5455E-01
  prteigrs : nnsclo,ikpt=   10   63 max resid (incl. the buffer)=  5.70245E-06
 Non-SCF case, kpt   64 (  0.26667  0.26667  0.00000), residuals and eigenvalues=
  9.59E-13  3.38E-13  6.01E-13  6.26E-13  3.90E-13  5.92E-13  4.69E-13  9.44E-13
  3.87E-13  2.22E-13  9.94E-13  3.29E-13  4.67E-13  9.14E-12  5.10E-09  3.31E-05
 -5.2993E-01 -5.2145E-01 -2.6779E-01 -2.6670E-01 -2.1586E-01 -2.0174E-01
 -1.9924E-01 -1.5377E-01 -9.9557E-02 -1.2468E-02  1.8713E-02  1.8788E-02
  7.9130E-02  1.7309E-01  2.1214E-01  2.4997E-01
  prteigrs : nnsclo,ikpt=   10   64 max resid (incl. the buffer)=  3.30564E-05
 Non-SCF case, kpt   65 (  0.25833  0.25833  0.00000), residuals and eigenvalues=
  9.62E-13  7.72E-13  4.86E-13  7.35E-13  6.05E-13  8.88E-13  9.90E-13  4.41E-13
  4.33E-13  6.70E-13  4.49E-13  6.38E-13  9.33E-13  8.34E-11  2.18E-08  6.85E-05
 -5.3179E-01 -5.2250E-01 -2.6871E-01 -2.6371E-01 -2.1547E-01 -2.0291E-01
 -1.9502E-01 -1.5116E-01 -1.0181E-01 -1.1380E-02  1.5359E-02  1.8947E-02
  7.7530E-02  1.7567E-01  2.1407E-01  2.4767E-01
  prteigrs : nnsclo,ikpt=   10   65 max resid (incl. the buffer)=  6.85210E-05
 Non-SCF case, kpt   66 (  0.25000  0.25000  0.00000), residuals and eigenvalues=
  7.66E-13  6.35E-13  2.48E-13  4.32E-13  2.72E-13  8.39E-13  2.51E-13  7.61E-13
  4.62E-13  4.59E-13  3.50E-13  9.70E-13  6.95E-13  1.86E-10  7.08E-08  4.40E-06
 -5.3389E-01 -5.2366E-01 -2.6918E-01 -2.6041E-01 -2.1542E-01 -2.0393E-01
 -1.9066E-01 -1.4853E-01 -1.0397E-01 -1.0908E-02  1.2272E-02  1.8852E-02
  7.5918E-02  1.7848E-01  2.1370E-01  2.4777E-01
  prteigrs : nnsclo,ikpt=   10   66 max resid (incl. the buffer)=  4.40302E-06
 Non-SCF case, kpt   67 (  0.24167  0.24167  0.00000), residuals and eigenvalues=
  8.02E-13  6.62E-13  2.99E-13  3.43E-13  9.83E-13  6.54E-13  9.81E-13  8.08E-13
  5.13E-13  4.17E-13  4.91E-13  3.76E-13  7.05E-13  2.16E-10  4.26E-08  3.54E-05
 -5.3617E-01 -5.2493E-01 -2.6925E-01 -2.5676E-01 -2.1564E-01 -2.0476E-01
 -1.8625E-01 -1.4588E-01 -1.0599E-01 -1.1217E-02  9.6843E-03  1.8521E-02
  7.4376E-02  1.8124E-01  2.1146E-01  2.4955E-01
  prteigrs : nnsclo,ikpt=   10   67 max resid (incl. the buffer)=  3.53510E-05
 Non-SCF case, kpt   68 (  0.23333  0.23333  0.00000), residuals and eigenvalues=
  8.53E-13  8.27E-13  3.33E-13  6.93E-13  5.78E-13  2.20E-13  7.34E-13  3.89E-13
  4.27E-13  5.16E-13  6.06E-13  5.10E-13  7.95E-13  7.52E-11  4.05E-09  6.07E-07
 -5.3864E-01 -5.2629E-01 -2.6893E-01 -2.5282E-01 -2.1611E-01 -2.0537E-01
 -1.8185E-01 -1.4326E-01 -1.0784E-01 -1.2308E-02  7.6977E-03  1.7928E-02
  7.2887E-02  1.8347E-01  2.0874E-01  2.4577E-01
  prteigrs : nnsclo,ikpt=   10   68 max resid (incl. the buffer)=  6.07163E-07
 Non-SCF case, kpt   69 (  0.22500  0.22500  0.00000), residuals and eigenvalues=
  6.75E-13  9.90E-13  3.10E-13  2.62E-13  5.33E-13  6.64E-13  3.43E-13  3.29E-13
  7.11E-13  9.84E-13  3.73E-13  2.52E-13  2.73E-13  9.77E-11  1.63E-08  1.09E-04
 -5.4127E-01 -5.2773E-01 -2.6825E-01 -2.4859E-01 -2.1682E-01 -2.0574E-01
 -1.7752E-01 -1.4069E-01 -1.0951E-01 -1.4001E-02  6.2281E-03  1.7080E-02
  7.1447E-02  1.8432E-01  2.0702E-01  2.4421E-01
  prteigrs : nnsclo,ikpt=   10   69 max resid (incl. the buffer)=  1.08957E-04
 Non-SCF case, kpt   70 (  0.21667  0.21667  0.00000), residuals and eigenvalues=
  5.11E-13  5.65E-13  2.67E-13  2.78E-13  3.38E-13  6.45E-13  2.16E-13  7.26E-13
  9.15E-13  9.25E-13  4.37E-13  4.49E-13  8.56E-13  1.67E-11  3.23E-09  9.19E-06
 -5.4404E-01 -5.2923E-01 -2.6727E-01 -2.4411E-01 -2.1773E-01 -2.0585E-01
 -1.7329E-01 -1.3819E-01 -1.1099E-01 -1.6003E-02  5.0470E-03  1.5981E-02
  7.0012E-02  1.8307E-01  2.0737E-01  2.4196E-01
  prteigrs : nnsclo,ikpt=   10   70 max resid (incl. the buffer)=  9.18888E-06
 Non-SCF case, kpt   71 (  0.20833  0.20833  0.00000), residuals and eigenvalues=
  5.60E-13  6.68E-13  8.02E-13  9.33E-13  2.78E-13  7.70E-13  2.97E-13  4.36E-13
  7.68E-13  6.92E-13  2.62E-13  2.70E-13  4.40E-13  1.45E-12  3.63E-10  4.47E-08
 -5.4693E-01 -5.3081E-01 -2.6606E-01 -2.3944E-01 -2.1881E-01 -2.0571E-01
 -1.6921E-01 -1.3580E-01 -1.1235E-01 -1.8086E-02  4.0791E-03  1.4632E-02
  6.8483E-02  1.7997E-01  2.0962E-01  2.4008E-01
  prteigrs : nnsclo,ikpt=   10   71 max resid (incl. the buffer)=  4.46894E-08
 Non-SCF case, kpt   72 (  0.20000  0.20000  0.00000), residuals and eigenvalues=
  6.42E-13  6.90E-13  4.68E-13  7.75E-13  9.86E-13  2.51E-13  9.66E-13  8.61E-13
  3.09E-13  6.04E-13  4.38E-13  8.16E-13  3.93E-13  1.54E-12  6.68E-10  9.86E-09
 -5.4992E-01 -5.3242E-01 -2.6468E-01 -2.3459E-01 -2.1997E-01 -2.0522E-01
 -1.6535E-01 -1.3352E-01 -1.1353E-01 -1.9958E-02  3.1409E-03  1.3145E-02
  6.6941E-02  1.7583E-01  2.1305E-01  2.3826E-01
  prteigrs : nnsclo,ikpt=   10   72 max resid (incl. the buffer)=  9.85833E-09
 Non-SCF case, kpt   73 (  0.19167  0.19167  0.00000), residuals and eigenvalues=
  5.05E-13  6.63E-13  4.60E-13  4.06E-13  9.10E-13  3.44E-13  4.10E-13  8.84E-13
  4.05E-13  3.71E-13  3.22E-13  3.41E-13  6.95E-13  5.62E-12  2.93E-09  2.35E-09
 -5.5297E-01 -5.3406E-01 -2.6322E-01 -2.2963E-01 -2.2113E-01 -2.0437E-01
 -1.6175E-01 -1.3137E-01 -1.1451E-01 -2.1432E-02  2.2896E-03  1.1563E-02
  6.5338E-02  1.7126E-01  2.1701E-01  2.3646E-01
  prteigrs : nnsclo,ikpt=   10   73 max resid (incl. the buffer)=  2.92556E-09
 Non-SCF case, kpt   74 (  0.18333  0.18333  0.00000), residuals and eigenvalues=
  4.14E-13  8.22E-13  9.48E-13  4.45E-13  2.90E-13  3.25E-13  3.37E-13  9.42E-13
  4.86E-13  2.00E-13  6.11E-13  9.31E-13  6.96E-13  9.95E-13  6.61E-09  1.11E-07
 -5.5606E-01 -5.3571E-01 -2.6182E-01 -2.2464E-01 -2.2217E-01 -2.0312E-01
 -1.5853E-01 -1.2938E-01 -1.1527E-01 -2.2469E-02  1.3923E-03  9.9291E-03
  6.3567E-02  1.6653E-01  2.2111E-01  2.3464E-01
  prteigrs : nnsclo,ikpt=   10   74 max resid (incl. the buffer)=  1.11467E-07
 Non-SCF case, kpt   75 (  0.17500  0.17500  0.00000), residuals and eigenvalues=
  5.14E-13  9.70E-13  7.37E-13  8.45E-13  2.81E-13  7.06E-13  9.97E-13  7.23E-13
  5.42E-13  4.28E-13  2.56E-13  7.40E-13  5.30E-13  6.35E-13  5.96E-09  2.04E-08
 -5.5917E-01 -5.3738E-01 -2.6063E-01 -2.2292E-01 -2.1974E-01 -2.0140E-01
 -1.5580E-01 -1.2755E-01 -1.1575E-01 -2.2991E-02  5.4133E-04  8.2824E-03
  6.1620E-02  1.6179E-01  2.2511E-01  2.3278E-01
  prteigrs : nnsclo,ikpt=   10   75 max resid (incl. the buffer)=  2.03948E-08
 Non-SCF case, kpt   76 (  0.16667  0.16667  0.00000), residuals and eigenvalues=
  7.99E-13  4.21E-13  4.77E-13  8.79E-13  3.79E-13  6.88E-13  9.66E-13  2.60E-13
  3.19E-13  3.51E-13  8.39E-13  8.09E-13  6.75E-13  2.32E-13  2.22E-09  4.57E-09
 -5.6227E-01 -5.3905E-01 -2.5981E-01 -2.2321E-01 -2.1507E-01 -1.9907E-01
 -1.5370E-01 -1.2590E-01 -1.1584E-01 -2.3049E-02 -1.8597E-04  6.6996E-03
  5.9519E-02  1.5711E-01  2.2880E-01  2.3086E-01
  prteigrs : nnsclo,ikpt=   10   76 max resid (incl. the buffer)=  4.56674E-09
 Non-SCF case, kpt   77 (  0.15833  0.15833  0.00000), residuals and eigenvalues=
  9.14E-13  7.86E-13  3.24E-13  5.34E-13  6.83E-13  6.10E-13  4.69E-13  6.11E-13
  3.19E-13  2.42E-13  4.47E-13  6.38E-13  8.25E-13  2.92E-13  2.67E-08  8.76E-08
 -5.6535E-01 -5.4070E-01 -2.5952E-01 -2.2288E-01 -2.1078E-01 -1.9605E-01
 -1.5235E-01 -1.2445E-01 -1.1545E-01 -2.2642E-02 -7.6304E-04  5.2133E-03
  5.7224E-02  1.5255E-01  2.2886E-01  2.3195E-01
  prteigrs : nnsclo,ikpt=   10   77 max resid (incl. the buffer)=  8.75794E-08
 Non-SCF case, kpt   78 (  0.15000  0.15000  0.00000), residuals and eigenvalues=
  4.93E-13  6.29E-13  3.61E-13  7.74E-13  5.82E-13  2.96E-13  8.72E-13  3.83E-13
  4.40E-13  8.86E-13  9.53E-13  6.82E-13  4.76E-13  3.71E-13  9.22E-09  2.91E-08
 -5.6840E-01 -5.4234E-01 -2.5984E-01 -2.2186E-01 -2.0696E-01 -1.9229E-01
 -1.5181E-01 -1.2320E-01 -1.1455E-01 -2.1861E-02 -1.1166E-03  3.8277E-03
  5.4719E-02  1.4812E-01  2.2677E-01  2.3422E-01
  prteigrs : nnsclo,ikpt=   10   78 max resid (incl. the buffer)=  2.91099E-08
 Non-SCF case, kpt   79 (  0.14167  0.14167  0.00000), residuals and eigenvalues=
  4.56E-13  6.67E-13  4.63E-13  8.16E-13  6.06E-13  8.83E-13  5.91E-13  4.18E-13
  8.43E-13  5.58E-13  8.18E-13  6.27E-13  3.30E-13  3.92E-13  1.86E-08  7.36E-08
 -5.7138E-01 -5.4393E-01 -2.6074E-01 -2.2012E-01 -2.0353E-01 -1.8793E-01
 -1.5202E-01 -1.2216E-01 -1.1312E-01 -2.0715E-02 -1.1078E-03  2.6146E-03
  5.2048E-02  1.4385E-01  2.2462E-01  2.3525E-01
  prteigrs : nnsclo,ikpt=   10   79 max resid (incl. the buffer)=  7.35879E-08
 Non-SCF case, kpt   80 (  0.13333  0.13333  0.00000), residuals and eigenvalues=
  5.72E-13  9.96E-13  6.34E-13  7.31E-13  4.13E-13  8.45E-13  4.67E-13  7.03E-13
  3.12E-13  8.41E-13  9.83E-13  9.98E-13  3.55E-13  6.48E-13  2.86E-07  2.02E-06
 -5.7427E-01 -5.4549E-01 -2.6215E-01 -2.1776E-01 -2.0036E-01 -1.8317E-01
 -1.5288E-01 -1.2134E-01 -1.1128E-01 -1.9274E-02 -7.6795E-04  1.6291E-03
  4.9228E-02  1.3973E-01  2.2241E-01  2.3453E-01
  prteigrs : nnsclo,ikpt=   10   80 max resid (incl. the buffer)=  2.01793E-06
 Non-SCF case, kpt   81 (  0.12500  0.12500  0.00000), residuals and eigenvalues=
  8.37E-13  3.26E-13  6.71E-13  6.27E-13  7.52E-13  3.39E-13  3.56E-13  6.07E-13
  3.41E-13  3.15E-13  7.57E-13  4.40E-13  5.72E-13  8.04E-13  1.47E-07  2.24E-07
 -5.7708E-01 -5.4699E-01 -2.6397E-01 -2.1492E-01 -1.9731E-01 -1.7820E-01
 -1.5429E-01 -1.2074E-01 -1.0923E-01 -1.7642E-02 -1.3336E-04  8.7978E-04
  4.6259E-02  1.3577E-01  2.2015E-01  2.3175E-01
  prteigrs : nnsclo,ikpt=   10   81 max resid (incl. the buffer)=  2.23732E-07
 Non-SCF case, kpt   82 (  0.11667  0.11667  0.00000), residuals and eigenvalues=
  7.27E-13  6.13E-13  5.90E-13  5.14E-13  7.13E-13  5.08E-13  4.17E-13  7.81E-13
  6.07E-13  4.07E-13  6.99E-13  4.23E-13  2.79E-13  3.92E-13  1.86E-07  4.07E-07
 -5.7977E-01 -5.4843E-01 -2.6604E-01 -2.1170E-01 -1.9424E-01 -1.7317E-01
 -1.5600E-01 -1.2036E-01 -1.0709E-01 -1.5792E-02  4.5034E-04  9.0905E-04
  4.3249E-02  1.3198E-01  2.1787E-01  2.2721E-01
  prteigrs : nnsclo,ikpt=   10   82 max resid (incl. the buffer)=  4.07005E-07
 Non-SCF case, kpt   83 (  0.10833  0.10833  0.00000), residuals and eigenvalues=
  9.00E-13  4.18E-13  4.52E-13  7.68E-13  3.50E-13  3.45E-13  3.37E-13  9.15E-13
  5.95E-13  4.89E-13  3.50E-13  3.45E-13  5.55E-13  3.59E-13  7.32E-09  2.05E-08
 -5.8232E-01 -5.4981E-01 -2.6826E-01 -2.0821E-01 -1.9111E-01 -1.6823E-01
 -1.5792E-01 -1.2023E-01 -1.0496E-01 -1.3702E-02  3.3683E-04  2.2695E-03
  4.0191E-02  1.2835E-01  2.1561E-01  2.2149E-01
  prteigrs : nnsclo,ikpt=   10   83 max resid (incl. the buffer)=  2.05053E-08
 Non-SCF case, kpt   84 (  0.10000  0.10000  0.00000), residuals and eigenvalues=
  8.41E-13  6.44E-13  5.96E-13  2.94E-13  4.07E-13  4.87E-13  3.31E-13  2.71E-13
  4.54E-13  6.54E-13  7.00E-13  5.54E-13  8.44E-13  5.91E-13  2.66E-09  7.31E-09
 -5.8474E-01 -5.5111E-01 -2.7056E-01 -2.0458E-01 -1.8792E-01 -1.6348E-01
 -1.5995E-01 -1.2033E-01 -1.0297E-01 -1.1413E-02  5.3320E-04  3.8514E-03
  3.7123E-02  1.2489E-01  2.1337E-01  2.1509E-01
  prteigrs : nnsclo,ikpt=   10   84 max resid (incl. the buffer)=  7.31348E-09
 Non-SCF case, kpt   85 (  0.09167  0.09167  0.00000), residuals and eigenvalues=
  7.70E-13  4.57E-13  7.98E-13  2.18E-13  9.92E-13  4.54E-13  4.76E-13  5.69E-13
  8.99E-13  3.70E-13  4.97E-13  9.46E-13  5.50E-13  6.03E-13  9.40E-08  1.97E-08
 -5.8701E-01 -5.5233E-01 -2.7285E-01 -2.0085E-01 -1.8463E-01 -1.6200E-01
 -1.5897E-01 -1.2067E-01 -1.0119E-01 -8.8626E-03  1.0854E-03  5.5931E-03
  3.4096E-02  1.2159E-01  2.0837E-01  2.1120E-01
  prteigrs : nnsclo,ikpt=   10   85 max resid (incl. the buffer)=  9.39775E-08
 Non-SCF case, kpt   86 (  0.08333  0.08333  0.00000), residuals and eigenvalues=
  8.79E-13  5.00E-13  4.11E-13  8.56E-13  7.79E-13  9.99E-13  7.97E-13  2.90E-13
  3.05E-13  4.88E-13  3.93E-13  5.19E-13  4.15E-13  4.84E-13  7.65E-10  2.01E-09
 -5.8911E-01 -5.5346E-01 -2.7508E-01 -1.9715E-01 -1.8126E-01 -1.6401E-01
 -1.5476E-01 -1.2125E-01 -9.9621E-02 -6.0657E-03  1.9536E-03  7.4030E-03
  3.1158E-02  1.1844E-01  2.0158E-01  2.0911E-01
  prteigrs : nnsclo,ikpt=   10   86 max resid (incl. the buffer)=  2.00800E-09
 Non-SCF case, kpt   87 (  0.07500  0.07500  0.00000), residuals and eigenvalues=
  7.75E-13  5.47E-13  5.40E-13  7.70E-13  7.92E-13  9.65E-13  8.11E-13  2.64E-13
  9.57E-13  6.09E-13  3.69E-13  5.05E-13  4.00E-13  7.16E-13  2.68E-10  1.66E-09
 -5.9104E-01 -5.5450E-01 -2.7721E-01 -1.9355E-01 -1.7782E-01 -1.6594E-01
 -1.5092E-01 -1.2207E-01 -9.8299E-02 -3.0638E-03  3.1074E-03  9.2121E-03
  2.8339E-02  1.1545E-01  1.9492E-01  2.0713E-01
  prteigrs : nnsclo,ikpt=   10   87 max resid (incl. the buffer)=  1.66164E-09
 Non-SCF case, kpt   88 (  0.06667  0.06667  0.00000), residuals and eigenvalues=
  5.94E-13  8.15E-13  3.04E-13  8.34E-13  5.45E-13  7.75E-13  3.75E-13  8.10E-13
  4.38E-13  4.40E-13  7.26E-13  3.59E-13  7.54E-13  8.34E-13  6.63E-10  3.35E-09
 -5.9279E-01 -5.5545E-01 -2.7919E-01 -1.9011E-01 -1.7434E-01 -1.6773E-01
 -1.4746E-01 -1.2313E-01 -9.7213E-02  1.0747E-04  4.5200E-03  1.0968E-02
  2.5693E-02  1.1262E-01  1.8853E-01  2.0528E-01
  prteigrs : nnsclo,ikpt=   10   88 max resid (incl. the buffer)=  3.34795E-09
 Non-SCF case, kpt   89 (  0.05833  0.05833  0.00000), residuals and eigenvalues=
  7.15E-13  9.41E-13  9.47E-13  8.72E-13  2.66E-13  7.96E-13  3.80E-13  4.01E-13
  5.23E-13  7.70E-13  2.54E-13  7.34E-13  7.81E-13  8.08E-13  2.41E-09  1.18E-08
 -5.9435E-01 -5.5630E-01 -2.8101E-01 -1.8691E-01 -1.7085E-01 -1.6939E-01
 -1.4442E-01 -1.2444E-01 -9.6360E-02  3.3396E-03  6.0907E-03  1.2585E-02
  2.3236E-02  1.0995E-01  1.8254E-01  2.0357E-01
  prteigrs : nnsclo,ikpt=   10   89 max resid (incl. the buffer)=  1.17538E-08
 Non-SCF case, kpt   90 (  0.05000  0.05000  0.00000), residuals and eigenvalues=
  4.08E-13  9.91E-13  2.33E-13  8.66E-13  7.75E-13  5.09E-13  6.49E-13  6.93E-13
  4.24E-13  3.04E-13  2.54E-13  5.17E-13  8.25E-13  4.49E-13  2.40E-10  1.91E-09
 -5.9572E-01 -5.5704E-01 -2.8262E-01 -1.8398E-01 -1.7086E-01 -1.6739E-01
 -1.4180E-01 -1.2595E-01 -9.5697E-02  6.5761E-03  7.7810E-03  1.4057E-02
  2.1028E-02  1.0746E-01  1.7707E-01  2.0203E-01
  prteigrs : nnsclo,ikpt=   10   90 max resid (incl. the buffer)=  1.90581E-09
 Non-SCF case, kpt   91 (  0.04167  0.04167  0.00000), residuals and eigenvalues=
  4.37E-13  8.60E-13  2.59E-13  9.02E-13  7.28E-13  6.93E-13  5.26E-13  5.43E-13
  4.39E-13  7.07E-13  4.10E-13  4.87E-13  9.15E-13  4.40E-13  1.39E-10  4.57E-09
 -5.9689E-01 -5.5767E-01 -2.8402E-01 -1.8138E-01 -1.7212E-01 -1.6401E-01
 -1.3961E-01 -1.2764E-01 -9.5192E-02  9.4935E-03  9.6888E-03  1.5355E-02
  1.9106E-02  1.0517E-01  1.7225E-01  2.0067E-01
  prteigrs : nnsclo,ikpt=   10   91 max resid (incl. the buffer)=  4.57339E-09
 Non-SCF case, kpt   92 (  0.03333  0.03333  0.00000), residuals and eigenvalues=
  6.62E-13  4.51E-13  9.54E-13  9.26E-13  7.93E-13  2.16E-13  5.66E-13  6.97E-13
  4.75E-13  3.40E-13  7.65E-13  6.56E-13  4.62E-13  5.90E-13  1.54E-09  1.87E-08
 -5.9785E-01 -5.5819E-01 -2.8518E-01 -1.7918E-01 -1.7317E-01 -1.6078E-01
 -1.3781E-01 -1.2945E-01 -9.4814E-02  1.1111E-02  1.2537E-02  1.6445E-02
  1.7514E-02  1.0314E-01  1.6815E-01  1.9951E-01
  prteigrs : nnsclo,ikpt=   10   92 max resid (incl. the buffer)=  1.86989E-08
 Non-SCF case, kpt   93 (  0.02500  0.02500  0.00000), residuals and eigenvalues=
  4.72E-13  8.67E-13  8.96E-13  5.97E-13  6.64E-13  1.93E-13  5.47E-13  3.95E-13
  8.68E-13  2.87E-13  6.00E-13  4.00E-13  4.33E-13  3.63E-13  2.54E-10  1.69E-07
 -5.9859E-01 -5.5859E-01 -2.8610E-01 -1.7741E-01 -1.7397E-01 -1.5783E-01
 -1.3641E-01 -1.3128E-01 -9.4552E-02  1.2518E-02  1.4973E-02  1.6252E-02
  1.7311E-02  1.0143E-01  1.6488E-01  1.9858E-01
  prteigrs : nnsclo,ikpt=   10   93 max resid (incl. the buffer)=  1.69342E-07
 Non-SCF case, kpt   94 (  0.01667  0.01667  0.00000), residuals and eigenvalues=
  6.79E-13  5.18E-13  6.62E-13  4.58E-13  6.68E-13  7.01E-13  8.04E-13  6.82E-13
  3.89E-13  9.38E-13  7.89E-13  2.74E-13  8.05E-13  3.72E-13  1.53E-09  8.05E-08
 -5.9913E-01 -5.5888E-01 -2.8676E-01 -1.7610E-01 -1.7455E-01 -1.5534E-01
 -1.3541E-01 -1.3295E-01 -9.4370E-02  1.3626E-02  1.5366E-02  1.6855E-02
  1.7944E-02  1.0012E-01  1.6249E-01  1.9789E-01
  prteigrs : nnsclo,ikpt=   10   94 max resid (incl. the buffer)=  8.05105E-08
 Non-SCF case, kpt   95 (  0.00833  0.00833  0.00000), residuals and eigenvalues=
  1.00E-12  6.00E-13  6.98E-13  4.50E-13  9.92E-13  6.96E-13  8.68E-13  5.95E-13
  6.94E-13  4.09E-13  2.74E-13  8.14E-13  6.99E-13  4.14E-13  2.90E-09  1.33E-07
 -5.9945E-01 -5.5905E-01 -2.8715E-01 -1.7528E-01 -1.7489E-01 -1.5360E-01
 -1.3481E-01 -1.3417E-01 -9.4255E-02  1.4367E-02  1.4840E-02  1.8059E-02
  1.8335E-02  9.9302E-02  1.6104E-01  1.9746E-01
  prteigrs : nnsclo,ikpt=   10   95 max resid (incl. the buffer)=  1.33322E-07
 Non-SCF case, kpt   96 (  0.00000  0.00000  0.00000), residuals and eigenvalues=
  9.88E-13  4.24E-13  3.58E-13  8.15E-13  3.13E-13  5.34E-13  4.72E-13  4.49E-13
  4.96E-13  5.06E-13  8.42E-13  8.37E-13  7.51E-13  4.89E-13  4.93E-10  6.21E-07
 -5.9956E-01 -5.5910E-01 -2.8729E-01 -1.7497E-01 -1.7497E-01 -1.5295E-01
 -1.3462E-01 -1.3462E-01 -9.4223E-02  1.4662E-02  1.4662E-02  1.8484E-02
  1.8484E-02  9.9024E-02  1.6055E-01  1.9732E-01
  prteigrs : nnsclo,ikpt=   10   96 max resid (incl. the buffer)=  6.21135E-07


 scprqt:  WARNING -
  nstep=   10 was not enough non-SCF iterations to converge;
  maximum residual=  2.158E-10 exceeds tolwfr=  1.000E-12

 Integrated electronic density in atomic spheres:
 ------------------------------------------------
 Atom  Sphere_radius  Integrated_density
    1        2.00000          2.94350666
    2        2.00000          3.82703349
    3        2.00000          3.82703349
================================================================================

 ----iterations are completed or convergence reached----

 Mean square residual over all n,k,spin=   5.0153E-07; max=  1.0896E-04
 reduced coordinates (array xred) for    3 atoms
       0.000000000000      0.000000000000     -0.000000000000
       0.666666666667      0.333333333333      0.158355044000
       0.666666666667      0.333333333333     -0.158355044000

 cartesian coordinates (angstrom) at end:
    1      0.00000000000000     0.00000000000000    -0.00000000000000
    2      1.60071135097810     0.92417112937736     1.60940137409154
    3      1.60071135097810     0.92417112937736    -1.60940137409154
 length scales=  6.049812142300  6.049812142300 19.205752833000 bohr
              =  3.201422701956  3.201422701956 10.163246673036 angstroms
 prteigrs : about to open file mos2_5o_DS2_EIG
 Eigenvalues (   eV  ) for nkpt=  96  k points:
 kpt#   1, nband= 16, wtk=  1.00000, kpt=  0.0000  0.0000  0.0000 (reduced coord)
 -16.31472  -15.21393   -7.81747   -4.76122   -4.76122   -4.16205   -3.66308   -3.66308
  -2.56394    0.39898    0.39898    0.50297    0.50297    2.69457    4.36889    5.36935
 kpt#   2, nband= 16, wtk=  1.00000, kpt=  0.0143  0.0000  0.0000 (reduced coord)
 -16.31207  -15.21240   -7.81391   -4.76954   -4.75893   -4.17920   -3.66868   -3.65111
  -2.56497    0.39163    0.40339    0.49154    0.49902    2.70192    4.38188    5.37317
 kpt#   3, nband= 16, wtk=  1.00000, kpt=  0.0286  0.0000  0.0000 (reduced coord)
 -16.30349  -15.20797   -7.80353   -4.79103   -4.75065   -4.22589   -3.68409   -3.61912
  -2.56797    0.37103    0.41727    0.45963    0.48841    2.72391    4.42053    5.38444
 kpt#   4, nband= 16, wtk=  1.00000, kpt=  0.0429  0.0000  0.0000 (reduced coord)
 -16.28919  -15.20024   -7.78586   -4.82582   -4.73505   -4.29282   -3.70963   -3.57496
  -2.57257    0.34215    0.40929    0.44113    0.47192    2.75881    4.48418    5.40287
 kpt#   5, nband= 16, wtk=  1.00000, kpt=  0.0571  0.0000  0.0000 (reduced coord)
 -16.26911  -15.18940   -7.76135   -4.87305   -4.71268   -4.37233   -3.74298   -3.52775
  -2.57945    0.30571    0.34383    0.44943    0.47465    2.80446    4.57151    5.42786
 kpt#   6, nband= 16, wtk=  1.00000, kpt=  0.0714  0.0000  0.0000 (reduced coord)
 -16.24351  -15.17555   -7.73028   -4.93215   -4.68452   -4.46015   -3.78518   -3.48322
  -2.58926    0.26469    0.26692    0.42134    0.51588    2.85860    4.68044    5.45874
 kpt#   7, nband= 16, wtk=  1.00000, kpt=  0.0857  0.0000  0.0000 (reduced coord)
 -16.21242  -15.15874   -7.69301   -5.00190   -4.65043   -4.55349   -3.83477   -3.44484
  -2.60271    0.18254    0.22278    0.38826    0.56406    2.91936    4.80843    5.49494
 kpt#   8, nband= 16, wtk=  1.00000, kpt=  0.1000  0.0000  0.0000 (reduced coord)
 -16.17597  -15.13893   -7.64999   -5.08053   -4.65075   -4.61057   -3.89077   -3.41509
  -2.62046    0.09489    0.18407    0.35092    0.61811    2.98540    4.95227    5.53595
 kpt#   9, nband= 16, wtk=  1.00000, kpt=  0.1143  0.0000  0.0000 (reduced coord)
 -16.13437  -15.11649   -7.60183   -5.16794   -4.75130   -4.56542   -3.95224   -3.39614
  -2.64374    0.00647    0.15068    0.30990    0.67680    3.05563    5.10792    5.58106
 kpt#  10, nband= 16, wtk=  1.00000, kpt=  0.1286  0.0000  0.0000 (reduced coord)
 -16.08765  -15.09118   -7.54933   -5.26131   -4.85392   -4.51428   -4.01858   -3.38824
  -2.67300   -0.07808    0.12716    0.26666    0.73859    3.12964    5.27071    5.62985
 kpt#  11, nband= 16, wtk=  1.00000, kpt=  0.1429  0.0000  0.0000 (reduced coord)
 -16.03607  -15.06347   -7.49319   -5.36012   -4.95857   -4.45888   -4.08798   -3.39245
  -2.70897   -0.15734    0.11490    0.22155    0.80248    3.20700    5.43503    5.68145
 kpt#  12, nband= 16, wtk=  1.00000, kpt=  0.1571  0.0000  0.0000 (reduced coord)
 -15.97996  -15.03322   -7.43474   -5.46183   -5.06496   -4.39928   -4.15978   -3.40853
  -2.75246   -0.22795    0.11557    0.17459    0.86873    3.28757    5.59364    5.73496
 kpt#  13, nband= 16, wtk=  1.00000, kpt=  0.1714  0.0000  0.0000 (reduced coord)
 -15.91955  -15.00072   -7.37547   -5.56429   -5.17370   -4.33593   -4.23374   -3.43590
  -2.80290   -0.28789    0.12704    0.12830    0.93490    3.37126    5.73828    5.78937
 kpt#  14, nband= 16, wtk=  1.00000, kpt=  0.1857  0.0000  0.0000 (reduced coord)
 -15.85520  -14.96626   -7.31729   -5.66671   -5.28441   -4.30886   -4.26967   -3.47296
  -2.86031   -0.33637    0.07920    0.15359    1.00052    3.45804    5.84305    5.85969
 kpt#  15, nband= 16, wtk=  1.00000, kpt=  0.2000  0.0000  0.0000 (reduced coord)
 -15.78701  -14.92972   -7.26234   -5.76550   -5.39580   -4.38383   -4.19995   -3.51788
  -2.92304   -0.37223    0.03293    0.19321    1.06525    3.54792    5.89429    5.94896
 kpt#  16, nband= 16, wtk=  1.00000, kpt=  0.2143  0.0000  0.0000 (reduced coord)
 -15.71542  -14.89151   -7.21365   -5.85857   -5.50873   -4.45869   -4.12836   -3.56910
  -2.98941   -0.39565   -0.01186    0.24357    1.12764    3.64063    5.94056    5.99917
 kpt#  17, nband= 16, wtk=  1.00000, kpt=  0.2286  0.0000  0.0000 (reduced coord)
 -15.64092  -14.85174   -7.17469   -5.94326   -5.62182   -4.53235   -4.05461   -3.62467
  -3.05744   -0.40692   -0.05406    0.30541    1.18813    3.73612    5.97872    6.00876
 kpt#  18, nband= 16, wtk=  1.00000, kpt=  0.2429  0.0000  0.0000 (reduced coord)
 -15.56372  -14.81073   -7.14936   -6.01639   -5.73635   -4.60441   -3.97884   -3.68284
  -3.12416   -0.40678   -0.09216    0.37456    1.24643    3.83423    5.98046    6.00522
 kpt#  19, nband= 16, wtk=  1.00000, kpt=  0.2571  0.0000  0.0000 (reduced coord)
 -15.48461  -14.76879   -7.14133   -6.07470   -5.85065   -4.67477   -3.90382   -3.74190
  -3.18757   -0.39591   -0.12791    0.45054    1.30086    3.93438    5.91906    6.01555
 kpt#  20, nband= 16, wtk=  1.00000, kpt=  0.2714  0.0000  0.0000 (reduced coord)
 -15.40382  -14.72628   -7.15304   -6.11728   -5.96450   -4.74239   -3.82908   -3.80049
  -3.24466   -0.37666   -0.15874    0.53158    1.35245    4.03618    5.82910    6.00668
 kpt#  21, nband= 16, wtk=  1.00000, kpt=  0.2857  0.0000  0.0000 (reduced coord)
 -15.32219  -14.68337   -7.18432   -6.14479   -6.07735   -4.80780   -3.85753   -3.75564
  -3.29281   -0.34787   -0.18626    0.61599    1.39987    4.13943    5.71516    5.97763
 kpt#  22, nband= 16, wtk=  1.00000, kpt=  0.3000  0.0000  0.0000 (reduced coord)
 -15.24041  -14.64056   -7.23359   -6.18894   -6.16058   -4.87026   -3.91231   -3.68452
  -3.33031   -0.31374   -0.20974    0.70129    1.44357    4.24194    5.58056    5.93056
 kpt#  23, nband= 16, wtk=  1.00000, kpt=  0.3143  0.0000  0.0000 (reduced coord)
 -15.15873  -14.59808   -7.29609   -6.29742   -6.16881   -4.92891   -3.96375   -3.61543
  -3.35475   -0.27364   -0.22722    0.78828    1.48381    4.34238    5.43157    5.87085
 kpt#  24, nband= 16, wtk=  1.00000, kpt=  0.3286  0.0000  0.0000 (reduced coord)
 -15.07814  -14.55642   -7.36786   -6.40250   -6.17412   -4.98464   -4.01162   -3.54990
  -3.36568   -0.24107   -0.22933    0.87394    1.52005    4.43655    5.27501    5.80472
 kpt#  25, nband= 16, wtk=  1.00000, kpt=  0.3429  0.0000  0.0000 (reduced coord)
 -14.99936  -14.51585   -7.44484   -6.50341   -6.17923   -5.03650   -4.05562   -3.48805
  -3.36259   -0.24994   -0.18081    0.95680    1.55281    4.51470    5.12499    5.73739
 kpt#  26, nband= 16, wtk=  1.00000, kpt=  0.3571  0.0000  0.0000 (reduced coord)
 -14.92321  -14.47692   -7.52372   -6.59908   -6.18654   -5.08456   -4.09555   -3.43091
  -3.34691   -0.25562   -0.12934    1.03646    1.58197    4.54957    5.01192    5.67253
 kpt#  27, nband= 16, wtk=  1.00000, kpt=  0.3714  0.0000  0.0000 (reduced coord)
 -14.85051  -14.43993   -7.60208   -6.68904   -6.19649   -5.12813   -4.13130   -3.37787
  -3.31963   -0.25559   -0.07604    1.11063    1.60811    4.49793    4.98273    5.61302
 kpt#  28, nband= 16, wtk=  1.00000, kpt=  0.3857  0.0000  0.0000 (reduced coord)
 -14.78227  -14.40565   -7.67760   -6.77176   -6.20943   -5.16934   -4.16311   -3.33088
  -3.28406   -0.25382   -0.02202    1.18007    1.62975    4.37274    5.02844    5.56114
 kpt#  29, nband= 16, wtk=  1.00000, kpt=  0.4000  0.0000  0.0000 (reduced coord)
 -14.71930  -14.37420   -7.74877   -6.84729   -6.22442   -5.20469   -4.19105   -3.28944
  -3.24271   -0.25108    0.03052    1.24182    1.64915    4.22038    5.10409    5.51740
 kpt#  30, nband= 16, wtk=  1.00000, kpt=  0.4143  0.0000  0.0000 (reduced coord)
[...]
  -2.85602   -0.37284    0.00917    0.06176    1.09365    3.49262    5.86704    6.02714
 kpt#  84, nband= 16, wtk=  1.00000, kpt=  0.1000  0.1000  0.0000 (reduced coord)
 -15.91169  -14.99642   -7.36225   -5.56698   -5.11345   -4.44842   -4.35251   -3.27436
  -2.80206   -0.31056    0.01451    0.10480    1.01016    3.39836    5.80623    5.85291
 kpt#  85, nband= 16, wtk=  1.00000, kpt=  0.0917  0.0917  0.0000 (reduced coord)
 -15.97335  -15.02963   -7.42466   -5.46537   -5.02411   -4.40817   -4.32584   -3.28364
  -2.75353   -0.24116    0.02954    0.15220    0.92780    3.30853    5.66991    5.74704
 kpt#  86, nband= 16, wtk=  1.00000, kpt=  0.0833  0.0833  0.0000 (reduced coord)
 -16.03052  -15.06042   -7.48535   -5.36476   -4.93225   -4.46304   -4.21131   -3.29945
  -2.71083   -0.16506    0.05316    0.20145    0.84784    3.22299    5.48534    5.69027
 kpt#  87, nband= 16, wtk=  1.00000, kpt=  0.0750  0.0750  0.0000 (reduced coord)
 -16.08304  -15.08878   -7.54325   -5.26689   -4.83885   -4.51549   -4.10673   -3.32181
  -2.67484   -0.08337    0.08456    0.25068    0.77114    3.14167    5.30402    5.63639
 kpt#  88, nband= 16, wtk=  1.00000, kpt=  0.0667  0.0667  0.0000 (reduced coord)
 -16.13061  -15.11443   -7.59724   -5.17310   -4.74398   -4.56414   -4.01266   -3.35060
  -2.64530    0.00292    0.12299    0.29847    0.69916    3.06462    5.13011    5.58602
 kpt#  89, nband= 16, wtk=  1.00000, kpt=  0.0583  0.0583  0.0000 (reduced coord)
 -16.17318  -15.13756   -7.64659   -5.08603   -4.64917   -4.60933   -3.92994   -3.38611
  -2.62210    0.09088    0.16574    0.34244    0.63228    2.99188    4.96711    5.53947
 kpt#  90, nband= 16, wtk=  1.00000, kpt=  0.0500  0.0500  0.0000 (reduced coord)
 -16.21037  -15.15778   -7.69056   -5.00635   -4.64944   -4.55495   -3.85866   -3.42726
  -2.60404    0.17895    0.21173    0.38251    0.57221    2.92402    4.81844    5.49746
 kpt#  91, nband= 16, wtk=  1.00000, kpt=  0.0417  0.0417  0.0000 (reduced coord)
 -16.24209  -15.17493   -7.72862   -4.93567   -4.68376   -4.46292   -3.79885   -3.47323
  -2.59031    0.25833    0.26365    0.41782    0.51989    2.86184    4.68705    5.46049
 kpt#  92, nband= 16, wtk=  1.00000, kpt=  0.0333  0.0333  0.0000 (reduced coord)
 -16.26819  -15.18902   -7.76020   -4.87563   -4.71209   -4.37516   -3.74987   -3.52242
  -2.58001    0.30234    0.34114    0.44749    0.47658    2.80661    4.57570    5.42901
 kpt#  93, nband= 16, wtk=  1.00000, kpt=  0.0250  0.0250  0.0000 (reduced coord)
 -16.28858  -15.20004   -7.78519   -4.82745   -4.73407   -4.29482   -3.71187   -3.57222
  -2.57289    0.34062    0.40745    0.44224    0.47106    2.76011    4.48660    5.40355
 kpt#  94, nband= 16, wtk=  1.00000, kpt=  0.0167  0.0167  0.0000 (reduced coord)
 -16.30320  -15.20782   -7.80309   -4.79189   -4.74978   -4.22699   -3.68470   -3.61763
  -2.56793    0.37079    0.41813    0.45864    0.48828    2.72453    4.42166    5.38478
 kpt#  95, nband= 16, wtk=  1.00000, kpt=  0.0083  0.0083  0.0000 (reduced coord)
 -16.31194  -15.21242   -7.81385   -4.76951   -4.75897   -4.17953   -3.66831   -3.65092
  -2.56481    0.39094    0.40381    0.49140    0.49893    2.70214    4.38217    5.37322
 kpt#  96, nband= 16, wtk=  1.00000, kpt=  0.0000  0.0000  0.0000 (reduced coord)
 -16.31472  -15.21393   -7.81747   -4.76122   -4.76122   -4.16205   -3.66308   -3.66308
  -2.56394    0.39898    0.39898    0.50297    0.50297    2.69457    4.36889    5.36935

== END DATASET(S) ==============================================================
================================================================================
  
 -outvars: echo values of variables after computation  --------
            acell      6.0498121423E+00  6.0498121423E+00  1.9205752833E+01 Bohr
              amu      9.59400000E+01  3.20660000E+01
           diemac      1.20000000E+01
             ecut      1.70000000E+01 Hartree
           enunit1          0
           enunit2          1
           etotal1    -3.2167040888E+01
            fcart1     1.4835971541E-29  8.5655521630E-30 -0.0000000000E+00
                      -7.4179857705E-30 -4.2827760815E-30 -7.4980871712E-05
                      -7.4179857705E-30 -4.2827760815E-30  7.4980871712E-05
-          fftalg         112
           getden1          0
           getden2         -1
             iscf1          7
             iscf2         -2
           istwfk2       2    0    0    0    0    0    0    0    0    0
                         0    0    0    0    0    0    0    0    0    0
                         0    0    0    0    0    0    0    0    0    0
                         0    0    0    0    0    3    0    0    0    0
                         0    0    0    0    0    0    0    0    0    0
                       outvar_i_n : Printing only first  50 k-points.
           jdtset        1    2
              kpt1     0.00000000E+00  0.00000000E+00  1.25000000E-01
                       2.50000000E-01  0.00000000E+00  1.25000000E-01
                       5.00000000E-01  0.00000000E+00  1.25000000E-01
                       2.50000000E-01  2.50000000E-01  1.25000000E-01
                       0.00000000E+00  0.00000000E+00  3.75000000E-01
                       2.50000000E-01  0.00000000E+00  3.75000000E-01
                       5.00000000E-01  0.00000000E+00  3.75000000E-01
                       2.50000000E-01  2.50000000E-01  3.75000000E-01
              kpt2     0.00000000E+00  0.00000000E+00  0.00000000E+00
                       1.42857143E-02  0.00000000E+00  0.00000000E+00
                       2.85714286E-02  0.00000000E+00  0.00000000E+00
                       4.28571429E-02  0.00000000E+00  0.00000000E+00
                       5.71428571E-02  0.00000000E+00  0.00000000E+00
                       7.14285714E-02  0.00000000E+00  0.00000000E+00
                       8.57142857E-02  0.00000000E+00  0.00000000E+00
                       1.00000000E-01  0.00000000E+00  0.00000000E+00
                       1.14285714E-01  0.00000000E+00  0.00000000E+00
                       1.28571429E-01  0.00000000E+00  0.00000000E+00
                       1.42857143E-01  0.00000000E+00  0.00000000E+00
                       1.57142857E-01  0.00000000E+00  0.00000000E+00
                       1.71428571E-01  0.00000000E+00  0.00000000E+00
                       1.85714286E-01  0.00000000E+00  0.00000000E+00
                       2.00000000E-01  0.00000000E+00  0.00000000E+00
                       2.14285714E-01  0.00000000E+00  0.00000000E+00
                       2.28571429E-01  0.00000000E+00  0.00000000E+00
                       2.42857143E-01  0.00000000E+00  0.00000000E+00
                       2.57142857E-01  0.00000000E+00  0.00000000E+00
                       2.71428571E-01  0.00000000E+00  0.00000000E+00
                       2.85714286E-01  0.00000000E+00  0.00000000E+00
                       3.00000000E-01  0.00000000E+00  0.00000000E+00
                       3.14285714E-01  0.00000000E+00  0.00000000E+00
                       3.28571429E-01  0.00000000E+00  0.00000000E+00
                       3.42857143E-01  0.00000000E+00  0.00000000E+00
                       3.57142857E-01  0.00000000E+00  0.00000000E+00
                       3.71428571E-01  0.00000000E+00  0.00000000E+00
                       3.85714286E-01  0.00000000E+00  0.00000000E+00
                       4.00000000E-01  0.00000000E+00  0.00000000E+00
                       4.14285714E-01  0.00000000E+00  0.00000000E+00
                       4.28571429E-01  0.00000000E+00  0.00000000E+00
                       4.42857143E-01  0.00000000E+00  0.00000000E+00
                       4.57142857E-01  0.00000000E+00  0.00000000E+00
                       4.71428571E-01  0.00000000E+00  0.00000000E+00
                       4.85714286E-01  0.00000000E+00  0.00000000E+00
                       5.00000000E-01  0.00000000E+00  0.00000000E+00
                       4.91666667E-01  1.66666667E-02  0.00000000E+00
                       4.83333333E-01  3.33333333E-02  0.00000000E+00
                       4.75000000E-01  5.00000000E-02  0.00000000E+00
                       4.66666667E-01  6.66666667E-02  0.00000000E+00
                       4.58333333E-01  8.33333333E-02  0.00000000E+00
                       4.50000000E-01  1.00000000E-01  0.00000000E+00
                       4.41666667E-01  1.16666667E-01  0.00000000E+00
                       4.33333333E-01  1.33333333E-01  0.00000000E+00
                       4.25000000E-01  1.50000000E-01  0.00000000E+00
                       4.16666667E-01  1.66666667E-01  0.00000000E+00
                       4.08333333E-01  1.83333333E-01  0.00000000E+00
                       4.00000000E-01  2.00000000E-01  0.00000000E+00
                       3.91666667E-01  2.16666667E-01  0.00000000E+00
                       3.83333333E-01  2.33333333E-01  0.00000000E+00
                       outvar_i_n : Printing only first  50 k-points.
           kptopt1          1
           kptopt2         -3
         kptrlatt        4    0    0      0    4    0      0    0    4
          kptrlen1     2.41992486E+01
          kptrlen2     3.00000000E+01
P           mkmem1          8
P           mkmem2         96
            natom           3
            nband1         10
            nband2         16
           nbdbuf1          0
           nbdbuf2          2
           ndtset           2
            ngfft          24      24      72
             nkpt1          8
             nkpt2         96
            nstep          10
             nsym          12
           ntypat           2
              occ      2.000000  2.000000  2.000000  2.000000  2.000000  2.000000
                       2.000000  2.000000  2.000000  0.000000
            rprim      1.0000000000E+00  0.0000000000E+00  0.0000000000E+00
                      -5.0000000000E-01  8.6602540378E-01  0.0000000000E+00
                       0.0000000000E+00  0.0000000000E+00  1.0000000000E+00
           shiftk1     0.00000000E+00  0.00000000E+00  5.00000000E-01
           shiftk2     5.00000000E-01  5.00000000E-01  5.00000000E-01
          spgroup         187
           strten1     5.4616472321E-05  5.4616472375E-05  6.0474496470E-05
                       0.0000000000E+00  0.0000000000E+00  0.0000000000E+00
           symrel      1  0  0   0  1  0   0  0  1       0 -1  0  -1  0  0   0  0 -1
                      -1 -1  0   1  0  0   0  0 -1      -1  0  0   1  1  0   0  0  1
                       0  1  0  -1 -1  0   0  0  1       1  1  0   0 -1  0   0  0 -1
                       1  0  0   0  1  0   0  0 -1       0 -1  0  -1  0  0   0  0  1
                      -1 -1  0   1  0  0   0  0  1      -1  0  0   1  1  0   0  0 -1
                       0  1  0  -1 -1  0   0  0 -1       1  1  0   0 -1  0   0  0  1
           toldfe1     1.00000000E-06 Hartree
           toldfe2     0.00000000E+00 Hartree
           tolwfr1     0.00000000E+00
           tolwfr2     1.00000000E-12
            typat      1  2  2
              wtk1       0.03125    0.18750    0.09375    0.18750    0.03125    0.18750
                         0.09375    0.18750
              wtk2       1.00000    1.00000    1.00000    1.00000    1.00000    1.00000
                         1.00000    1.00000    1.00000    1.00000    1.00000    1.00000
                         1.00000    1.00000    1.00000    1.00000    1.00000    1.00000
                         1.00000    1.00000    1.00000    1.00000    1.00000    1.00000
                         1.00000    1.00000    1.00000    1.00000    1.00000    1.00000
                         1.00000    1.00000    1.00000    1.00000    1.00000    1.00000
                         1.00000    1.00000    1.00000    1.00000    1.00000    1.00000
                         1.00000    1.00000    1.00000    1.00000    1.00000    1.00000
                         1.00000    1.00000
                       outvars : Printing only first  50 k-points.
           xangst      5.7210161375E-28  0.0000000000E+00 -2.2971526669E-18
                       1.6007113510E+00  9.2417112938E-01  1.6094013741E+00
                       1.6007113510E+00  9.2417112938E-01 -1.6094013741E+00
            xcart      1.0811153702E-27  0.0000000000E+00 -4.3409894258E-18
                       3.0249060712E+00  1.7464303344E+00  3.0413278349E+00
                       3.0249060712E+00  1.7464303344E+00 -3.0413278349E+00
             xred      1.7870230426E-28  0.0000000000E+00 -2.2602547599E-19
                       6.6666666667E-01  3.3333333333E-01  1.5835504400E-01
                       6.6666666667E-01  3.3333333333E-01 -1.5835504400E-01
            znucl       42.00000   16.00000

================================================================================

- Total cpu        time (s,m,h):        333.4        5.56      0.093
- Total wall clock time (s,m,h):        119.6        1.99      0.033
-
- For major independent code sections, cpu and wall times (sec),
-  as well as % of the time and number of calls for node 0-
-<BEGIN_TIMER mpi_nprocs = 1, omp_nthreads = 1, mpi_rank = 0>
- cpu_time =          333.4, wall_time =          119.6
-
- routine                        cpu     %       wall     %      number of calls  Gflops    Speedup Efficacity
-                                                                  (-1=no count)
- fourwf%(pot)                 176.192  52.8     62.697  52.4          64654      -1.00        2.81       2.81
- nonlop(apply)                 78.197  23.5     27.715  23.2          64654      -1.00        2.82       2.82
- projbd                        48.060  14.4     17.674  14.8          97724      -1.00        2.72       2.72
- vtowfk(ssdiag)                 9.320   2.8      2.591   2.2             -1      -1.00        3.60       3.60
- getghc-other                   3.504   1.1      1.227   1.0             -1      -1.00        2.86       2.86
- others (108)                   4.028   1.2      2.258   1.9             -1      -1.00        1.78       1.78
-<END_TIMER>
-
- subtotal                     319.300  95.8    114.162  95.4                                  2.80       2.80

- For major independent code sections, cpu and wall times (sec),
- as well as % of the total time and number of calls 

-<BEGIN_TIMER mpi_nprocs = 1, omp_nthreads = 1, mpi_rank = world>
- cpu_time =         333.4, wall_time =         119.6
-
- routine                         cpu     %       wall     %      number of calls Gflops    Speedup Efficacity
-                                                                  (-1=no count)
- fourwf%(pot)                 176.192  52.8     62.697  52.4          64654      -1.00        2.81       2.81
- nonlop(apply)                 78.197  23.5     27.715  23.2          64654      -1.00        2.82       2.82
- projbd                        48.060  14.4     17.674  14.8          97724      -1.00        2.72       2.72
- vtowfk(ssdiag)                 9.320   2.8      2.591   2.2             -1      -1.00        3.60       3.60
- getghc-other                   3.504   1.1      1.227   1.0             -1      -1.00        2.86       2.86
- others (108)                   4.028   1.2      2.258   1.9             -1      -1.00        1.78       1.78
-<END_TIMER>

- subtotal                     319.300  95.8    114.162  95.4                                  2.80       2.80

================================================================================

 Suggested references for the acknowledgment of ABINIT usage.

 The users of ABINIT have little formal obligations with respect to the ABINIT group
 (those specified in the GNU General Public License, http://www.gnu.org/copyleft/gpl.txt).
 However, it is common practice in the scientific literature,
 to acknowledge the efforts of people that have made the research possible.
 In this spirit, please find below suggested citations of work written by ABINIT developers,
 corresponding to implementations inside of ABINIT that you have used in the present run.
 Note also that it will be of great value to readers of publications presenting these results,
 to read papers enabling them to understand the theoretical formalism and details
 of the ABINIT implementation.
 For information on why they are suggested, see also http://www.abinit.org/about/?text=acknowledgments.
-
- [1] Recent developments in the ABINIT software package.
- Computer Phys. Comm. 205, 106 (2016).
- X.Gonze, F.Jollet, F.Abreu Araujo, D.Adams, B.Amadon, T.Applencourt,
- C.Audouze, J.-M.Beuken, J.Bieder, A.Bokhanchuk, E.Bousquet, F.Bruneval
- D.Caliste, M.Cote, F.Dahm, F.Da Pieve, M.Delaveau, M.Di Gennaro,
- B.Dorado, C.Espejo, G.Geneste, L.Genovese, A.Gerossier, M.Giantomassi,
- Y.Gillet, D.R.Hamann, L.He, G.Jomard, J.Laflamme Janssen, S.Le Roux,
- A.Levitt, A.Lherbier, F.Liu, I.Lukacevic, A.Martin, C.Martins,
- M.J.T.Oliveira, S.Ponce, Y.Pouillon, T.Rangel, G.-M.Rignanese,
- A.H.Romero, B.Rousseau, O.Rubel, A.A.Shukri, M.Stankovski, M.Torrent,
- M.J.Van Setten, B.Van Troeye, M.J.Verstraete, D.Waroquier, J.Wiktor,
- B.Xue, A.Zhou, J.W.Zwanziger.
- Comment : the fourth generic paper describing the ABINIT project.
- Note that a version of this paper, that is not formatted for Computer Phys. Comm. 
- is available at http://www.abinit.org/about/ABINIT16.pdf .
- The licence allows the authors to put it on the Web.
-
- [2] Optimized norm-conserving Vanderbilt pseudopotentials.
- D.R. Hamann, Phys. Rev. B 88, 085117 (2013).
- Comment: Some pseudopotential generated using the ONCVPSP code were used.
-
- [3] ABINIT : First-principles approach of materials and nanosystem properties.
- Computer Phys. Comm. 180, 2582-2615 (2009).
- X. Gonze, B. Amadon, P.-M. Anglade, J.-M. Beuken, F. Bottin, P. Boulanger, F. Bruneval,
- D. Caliste, R. Caracas, M. Cote, T. Deutsch, L. Genovese, Ph. Ghosez, M. Giantomassi
- S. Goedecker, D.R. Hamann, P. Hermet, F. Jollet, G. Jomard, S. Leroux, M. Mancini, S. Mazevet,
- M.J.T. Oliveira, G. Onida, Y. Pouillon, T. Rangel, G.-M. Rignanese, D. Sangalli, R. Shaltaf,
- M. Torrent, M.J. Verstraete, G. Zerah, J.W. Zwanziger
- Comment : the third generic paper describing the ABINIT project.
- Note that a version of this paper, that is not formatted for Computer Phys. Comm. 
- is available at http://www.abinit.org/about/ABINIT_CPC_v10.pdf .
- The licence allows the authors to put it on the Web.
-
- [4] A brief introduction to the ABINIT software package.
- Z. Kristallogr. 220, 558-562 (2005).
- X. Gonze, G.-M. Rignanese, M. Verstraete, J.-M. Beuken, Y. Pouillon, R. Caracas, F. Jollet,
- M. Torrent, G. Zerah, M. Mikami, Ph. Ghosez, M. Veithen, J.-Y. Raty, V. Olevano, F. Bruneval,
- L. Reining, R. Godby, G. Onida, D.R. Hamann, and D.C. Allan.
- Comment : the second generic paper describing the ABINIT project. Note that this paper
- should be cited especially if you are using the GW part of ABINIT, as several authors
- of this part are not in the list of authors of the first or third paper.
- The .pdf of the latter paper is available at http://www.abinit.org/about/zfk_0505-06_558-562.pdf.
- Note that it should not redistributed (Copyright by Oldenburg Wissenshaftverlag,
- the licence allows the authors to put it on the Web).
-
- And optionally:
-
- [5] First-principles computation of material properties : the ABINIT software project. 
- X. Gonze, J.-M. Beuken, R. Caracas, F. Detraux, M. Fuchs, G.-M. Rignanese, L. Sindic,
- M. Verstraete, G. Zerah, F. Jollet, M. Torrent, A. Roy, M. Mikami, Ph. Ghosez, J.-Y. Raty, D.C. Allan.
- Computational Materials Science 25, 478-492 (2002). http://dx.doi.org/10.1016/S0927-0256(02)00325-7
- Comment : the original paper describing the ABINIT project.
-
- Proc.   0 individual time (sec): cpu=        333.4  wall=        119.6

================================================================================

 Calculation completed.
.Delivered  39 WARNINGs and   2 COMMENTs to log file.
+Overall time at end (sec) : cpu=        333.4  wall=        119.6
