
.Version 8.4.1 of ABINIT 
.(sequential version, prepared for a x86_64_linux_gnu7.0 computer) 

.Copyright (C) 1998-2017 ABINIT group . 
 ABINIT comes with ABSOLUTELY NO WARRANTY.
 It is free software, and you are welcome to redistribute it
 under certain conditions (GNU General Public License,
 see ~abinit/COPYING or http://www.gnu.org/copyleft/gpl.txt).

 ABINIT is a project of the Universite Catholique de Louvain,
 Corning Inc. and other collaborators, see ~abinit/doc/developers/contributors.txt .
 Please read ~abinit/doc/users/acknowledgments.html for suggested
 acknowledgments of the ABINIT effort.
 For more information, see http://www.abinit.org .

.Starting date : Wed  9 Aug 2017.
- ( at 10h35 )
  
- input  file    -> mos2_4.in
- output file    -> mos2_4.out
- root for input  files -> mos2_4i
- root for output files -> mos2_4o


 DATASET    1 : space group P-6 m 2 (#187); Bravais hP (primitive hexag.)
================================================================================
 Values of the parameters that define the memory need for DATASET  1.
     intxc =       0    ionmov =       0      iscf =       7    lmnmax =       6
     lnmax =       6     mgfft =      72  mpssoang =       3    mqgrid =    3548
     natom =       3  nloc_mem =       1    nspden =       1   nspinor =       1
    nsppol =       1      nsym =      12    n1xccc =    2501    ntypat =       2
    occopt =       1   xclevel =       1
-    mband =          10        mffmem =           1         mkmem =           2
       mpw =        2033          nfft =       41472          nkpt =           2
================================================================================
P This job should need less than                      14.168 Mbytes of memory.
  Rough estimation (10% accuracy) of disk space for files :
_ WF disk file :      0.622 Mbytes ; DEN or POT disk file :      0.318 Mbytes.
================================================================================


 DATASET    2 : space group P-6 m 2 (#187); Bravais hP (primitive hexag.)
================================================================================
 Values of the parameters that define the memory need for DATASET  2.
     intxc =       0    ionmov =       0      iscf =       7    lmnmax =       6
     lnmax =       6     mgfft =      72  mpssoang =       3    mqgrid =    3548
     natom =       3  nloc_mem =       1    nspden =       1   nspinor =       1
    nsppol =       1      nsym =      12    n1xccc =    2501    ntypat =       2
    occopt =       1   xclevel =       1
-    mband =          10        mffmem =           1         mkmem =           8
       mpw =        2052          nfft =       41472          nkpt =           8
================================================================================
P This job should need less than                      16.211 Mbytes of memory.
  Rough estimation (10% accuracy) of disk space for files :
_ WF disk file :      2.507 Mbytes ; DEN or POT disk file :      0.318 Mbytes.
================================================================================


 DATASET    3 : space group P-6 m 2 (#187); Bravais hP (primitive hexag.)
================================================================================
 Values of the parameters that define the memory need for DATASET  3.
     intxc =       0    ionmov =       0      iscf =       7    lmnmax =       6
     lnmax =       6     mgfft =      72  mpssoang =       3    mqgrid =    3548
     natom =       3  nloc_mem =       1    nspden =       1   nspinor =       1
    nsppol =       1      nsym =      12    n1xccc =    2501    ntypat =       2
    occopt =       1   xclevel =       1
-    mband =          10        mffmem =           1         mkmem =          21
       mpw =        2046          nfft =       41472          nkpt =          21
================================================================================
P This job should need less than                      20.586 Mbytes of memory.
  Rough estimation (10% accuracy) of disk space for files :
_ WF disk file :      6.558 Mbytes ; DEN or POT disk file :      0.318 Mbytes.
================================================================================

--------------------------------------------------------------------------------
------------- Echo of variables that govern the present computation ------------
--------------------------------------------------------------------------------
-
- outvars: echo of selected default values                                      
-   iomode0 =  0 , fftalg0 =112 , wfoptalg0 =  0
-
- outvars: echo of global parameters not present in the input file              
-  max_nthreads =    0
-
 -outvars: echo values of preprocessed input variables --------
            acell      6.0204074108E+00  6.0204074108E+00  1.9112404479E+01 Bohr
              amu      9.59400000E+01  3.20660000E+01
           diemac      1.20000000E+01
             ecut      1.70000000E+01 Hartree
-          fftalg         112
           jdtset        1    2    3
              kpt1     0.00000000E+00  0.00000000E+00  2.50000000E-01
                       5.00000000E-01  0.00000000E+00  2.50000000E-01
              kpt2     0.00000000E+00  0.00000000E+00  1.25000000E-01
                       2.50000000E-01  0.00000000E+00  1.25000000E-01
                       5.00000000E-01  0.00000000E+00  1.25000000E-01
                       2.50000000E-01  2.50000000E-01  1.25000000E-01
                       0.00000000E+00  0.00000000E+00  3.75000000E-01
                       2.50000000E-01  0.00000000E+00  3.75000000E-01
                       5.00000000E-01  0.00000000E+00  3.75000000E-01
                       2.50000000E-01  2.50000000E-01  3.75000000E-01
              kpt3     0.00000000E+00  0.00000000E+00  8.33333333E-02
                       1.66666667E-01  0.00000000E+00  8.33333333E-02
                       3.33333333E-01  0.00000000E+00  8.33333333E-02
                       5.00000000E-01  0.00000000E+00  8.33333333E-02
                       1.66666667E-01  1.66666667E-01  8.33333333E-02
                       3.33333333E-01  1.66666667E-01  8.33333333E-02
                       3.33333333E-01  3.33333333E-01  8.33333333E-02
                       0.00000000E+00  0.00000000E+00  2.50000000E-01
                       1.66666667E-01  0.00000000E+00  2.50000000E-01
                       3.33333333E-01  0.00000000E+00  2.50000000E-01
                       5.00000000E-01  0.00000000E+00  2.50000000E-01
                       1.66666667E-01  1.66666667E-01  2.50000000E-01
                       3.33333333E-01  1.66666667E-01  2.50000000E-01
                       3.33333333E-01  3.33333333E-01  2.50000000E-01
                       0.00000000E+00  0.00000000E+00  4.16666667E-01
                       1.66666667E-01  0.00000000E+00  4.16666667E-01
                       3.33333333E-01  0.00000000E+00  4.16666667E-01
                       5.00000000E-01  0.00000000E+00  4.16666667E-01
                       1.66666667E-01  1.66666667E-01  4.16666667E-01
                       3.33333333E-01  1.66666667E-01  4.16666667E-01
                       3.33333333E-01  3.33333333E-01  4.16666667E-01
         kptrlatt1       2    0    0      0    2    0      0    0    2
         kptrlatt2       4    0    0      0    4    0      0    0    4
         kptrlatt3       6    0    0      0    6    0      0    0    6
          kptrlen1     1.20408148E+01
          kptrlen2     2.40816296E+01
          kptrlen3     3.61224445E+01
P           mkmem1          2
P           mkmem2          8
P           mkmem3         21
            natom           3
            nband1         10
            nband2         10
            nband3         10
           ndtset           3
            ngfft          24      24      72
             nkpt1          2
             nkpt2          8
             nkpt3         21
            nstep          10
             nsym          12
           ntypat           2
              occ1     2.000000  2.000000  2.000000  2.000000  2.000000  2.000000
                       2.000000  2.000000  2.000000  0.000000
              occ2     2.000000  2.000000  2.000000  2.000000  2.000000  2.000000
                       2.000000  2.000000  2.000000  0.000000
              occ3     2.000000  2.000000  2.000000  2.000000  2.000000  2.000000
                       2.000000  2.000000  2.000000  0.000000
            rprim      1.0000000000E+00  0.0000000000E+00  0.0000000000E+00
                      -5.0000000000E-01  8.6602540378E-01  0.0000000000E+00
                       0.0000000000E+00  0.0000000000E+00  1.0000000000E+00
           shiftk      0.00000000E+00  0.00000000E+00  5.00000000E-01
          spgroup         187
           symrel      1  0  0   0  1  0   0  0  1       0 -1  0  -1  0  0   0  0 -1
                      -1 -1  0   1  0  0   0  0 -1      -1  0  0   1  1  0   0  0  1
                       0  1  0  -1 -1  0   0  0  1       1  1  0   0 -1  0   0  0 -1
                       1  0  0   0  1  0   0  0 -1       0 -1  0  -1  0  0   0  0  1
                      -1 -1  0   1  0  0   0  0  1      -1  0  0   1  1  0   0  0 -1
                       0  1  0  -1 -1  0   0  0 -1       1  1  0   0 -1  0   0  0  1
           toldfe      1.00000000E-06 Hartree
            typat      1  2  2
              wtk1       0.25000    0.75000
              wtk2       0.03125    0.18750    0.09375    0.18750    0.03125    0.18750
                         0.09375    0.18750
              wtk3       0.00926    0.05556    0.05556    0.02778    0.05556    0.11111
                         0.01852    0.00926    0.05556    0.05556    0.02778    0.05556
                         0.11111    0.01852    0.00926    0.05556    0.05556    0.02778
                         0.05556    0.11111    0.01852
           xangst      0.0000000000E+00  0.0000000000E+00  0.0000000000E+00
                       1.5929311941E+00  9.1967925372E-01  1.6484034495E+00
                       1.5929311941E+00  9.1967925372E-01 -1.6484034495E+00
            xcart      0.0000000000E+00  0.0000000000E+00  0.0000000000E+00
                       3.0102037054E+00  1.7379419196E+00  3.1150310760E+00
                       3.0102037054E+00  1.7379419196E+00 -3.1150310760E+00
             xred      0.0000000000E+00  0.0000000000E+00  0.0000000000E+00
                       6.6666666667E-01  3.3333333333E-01  1.6298478192E-01
                       6.6666666667E-01  3.3333333333E-01 -1.6298478192E-01
            znucl       42.00000   16.00000

================================================================================

 chkinp: Checking input parameters for consistency, jdtset=   1.

 chkinp: Checking input parameters for consistency, jdtset=   2.

 chkinp: Checking input parameters for consistency, jdtset=   3.

================================================================================
== DATASET  1 ==================================================================
-   nproc =    1

 Exchange-correlation functional for the present dataset will be:
  LDA: new Teter (4/93) with spin-polarized option - ixc=1
 Citation for XC functional:
  S. Goedecker, M. Teter, J. Huetter, PRB 54, 1703 (1996)

 Real(R)+Recip(G) space primitive vectors, cartesian coordinates (Bohr,Bohr^-1):
 R(1)=  6.0204074  0.0000000  0.0000000  G(1)=  0.1661017  0.0958989  0.0000000
 R(2)= -3.0102037  5.2138258  0.0000000  G(2)=  0.0000000  0.1917977  0.0000000
 R(3)=  0.0000000  0.0000000 19.1124045  G(3)=  0.0000000  0.0000000  0.0523220
 Unit cell volume ucvol=  5.9992605E+02 bohr^3
 Angles (23,13,12)=  9.00000000E+01  9.00000000E+01  1.20000000E+02 degrees

 getcut: wavevector=  0.0000  0.0000  0.0000  ngfft=  24  24  72
         ecut(hartree)=     17.000   => boxcut(ratio)=   2.02968

--- Pseudopotential description ------------------------------------------------
- pspini: atom type   1  psp file is ./42mo.pspnc
- pspatm: opening atomic psp file    ./42mo.pspnc
-  Troullier-Martins psp for element  Mo        Thu Oct 27 17:40:28 EDT 1994
- 42.00000   6.00000    940714                znucl, zion, pspdat
    1    1    2    0      2001   0.00000      pspcod,pspxc,lmax,lloc,mmax,r2well
    0   4.276   7.035    0   2.8930462        l,e99.0,e99.9,nproj,rcpsp
   0.00000000   0.00000000   0.00000000   0.00000000     rms, ekb1, ekb2, epsatm
    1   1.499   2.758    1   3.1973167        l,e99.0,e99.9,nproj,rcpsp
   0.00000000   0.00000000   0.00000000   0.00000000     rms, ekb1, ekb2, epsatm
    2  11.774  15.725    1   2.1974630        l,e99.0,e99.9,nproj,rcpsp
   0.00000000   0.00000000   0.00000000   0.00000000     rms, ekb1, ekb2, epsatm
    2.63204696240783    0.28531456933550    4.53995799271176   rchrg,fchrg,qchrg
 pspatm: epsatm=   89.23647829
         --- l  ekb(1:nproj) -->
             1    0.432305
             2   -4.457359
 pspatm: atomic psp has been read  and splines computed

- pspini: atom type   2  psp file is ./S.psp8
- pspatm: opening atomic psp file    ./S.psp8
- S     ONCVPSP  r_core=  1.45  1.45  1.62
- 16.00000   6.00000    151027                znucl, zion, pspdat
    8   11    2    4       600   0.00000      pspcod,pspxc,lmax,lloc,mmax,r2well
    5.99000000000000    6.00000000000000    0.00000000000000   rchrg,fchrg,qchrg
     nproj     2     2     2
extension_switch     1
 pspatm: epsatm=    9.01629391
         --- l  ekb(1:nproj) -->
             0    6.687458    0.573856
             1    3.355342    0.912754
             2   -8.510942   -1.367258
 pspatm: atomic psp has been read  and splines computed

   1.93084319E+03                                ecore*ucvol(ha*bohr**3)
--------------------------------------------------------------------------------

_setup2: Arith. and geom. avg. npw (full set) are    2009.750    2009.705

================================================================================

     iter   Etot(hartree)      deltaE(h)  residm     vres2
 ETOT  1  -31.595311699730    -3.160E+01 4.237E-02 2.792E+03
 ETOT  2  -31.277008930411     3.183E-01 2.189E-03 4.739E+03
 ETOT  3  -32.112123279948    -8.351E-01 5.290E-03 1.501E+02
 ETOT  4  -32.136204947430    -2.408E-02 1.497E-02 1.637E+01
 ETOT  5  -32.138039090538    -1.834E-03 1.938E-03 1.531E+00
 ETOT  6  -32.138132646143    -9.356E-05 2.021E-03 9.381E-02
 ETOT  7  -32.138137300511    -4.654E-06 5.162E-04 5.745E-02
 ETOT  8  -32.138142048185    -4.748E-06 1.144E-03 7.689E-03
 ETOT  9  -32.138142614522    -5.663E-07 4.314E-04 4.430E-04
 ETOT 10  -32.138142762827    -1.483E-07 8.342E-04 9.187E-06

 At SCF step   10, etot is converged : 
  for the second time, diff in etot=  1.483E-07 < toldfe=  1.000E-06

 Cartesian components of stress tensor (hartree/bohr^3)
  sigma(1 1)=  7.39145913E-05  sigma(3 2)=  0.00000000E+00
  sigma(2 2)=  7.39145914E-05  sigma(3 1)=  0.00000000E+00
  sigma(3 3)=  6.39980200E-05  sigma(2 1)=  0.00000000E+00

 Integrated electronic density in atomic spheres:
 ------------------------------------------------
 Atom  Sphere_radius  Integrated_density
    1        2.00000          2.92295894
    2        2.00000          3.82875953
    3        2.00000          3.82875953
================================================================================

 ----iterations are completed or convergence reached----

 Mean square residual over all n,k,spin=   4.1771E-05; max=  8.3416E-04
 reduced coordinates (array xred) for    3 atoms
       0.000000000000      0.000000000000      0.000000000000
       0.666666666667      0.333333333333      0.162984781920
       0.666666666667      0.333333333333     -0.162984781920
 rms dE/dt=  8.5743E-04; max dE/dt=  1.8189E-03; dE/dt below (all hartree)
    1       0.000000000000      0.000000000000      0.000000000000
    2       0.000000000000      0.000000000000     -0.001818876533
    3       0.000000000000      0.000000000000      0.001818876533

 cartesian coordinates (angstrom) at end:
    1      0.00000000000000     0.00000000000000     0.00000000000000
    2      1.59293119411085     0.91967925371574     1.64840344945643
    3      1.59293119411085     0.91967925371574    -1.64840344945643

 cartesian forces (hartree/bohr) at end:
    1      0.00000000000000     0.00000000000000    -0.00000000000000
    2     -0.00000000000000    -0.00000000000000     0.00009516733150
    3     -0.00000000000000    -0.00000000000000    -0.00009516733150
 frms,max,avg= 4.4862310E-05 9.5167332E-05   0.000E+00  0.000E+00  0.000E+00 h/b

 cartesian forces (eV/Angstrom) at end:
    1      0.00000000000000     0.00000000000000    -0.00000000000000
    2     -0.00000000000000    -0.00000000000000     0.00489370053424
    3     -0.00000000000000    -0.00000000000000    -0.00489370053424
 frms,max,avg= 2.3069126E-03 4.8937005E-03   0.000E+00  0.000E+00  0.000E+00 e/A
 length scales=  6.020407410800  6.020407410800 19.112404479000 bohr
              =  3.185862388222  3.185862388222 10.113848851640 angstroms
 prteigrs : about to open file mos2_4o_DS1_EIG
 Fermi (or HOMO) energy (hartree) =  -0.09875   Average Vxc (hartree)=  -0.28427
 Eigenvalues (hartree) for nkpt=   2  k points:
 kpt#   1, nband= 10, wtk=  0.25000, kpt=  0.0000  0.0000  0.2500 (reduced coord)
  -0.59950   -0.56212   -0.28917   -0.17439   -0.17439   -0.15705   -0.13022   -0.13022
  -0.09875    0.01219
 prteigrs : prtvol=0 or 1, do not print more k-points.


--------------------------------------------------------------------------------
 Components of total free energy (in Hartree) :

    Kinetic energy  =  1.56727027899301E+01
    Hartree energy  =  2.58527586377065E+01
    XC energy       = -1.08270904655241E+01
    Ewald energy    = -3.10482230944750E+00
    PspCore energy  =  3.21846864015186E+00
    Loc. psp. energy= -5.70992061120053E+01
    NL   psp  energy= -5.85095394363850E+00
    >>>>>>>>> Etotal= -3.21381427628270E+01

 Other information on the energy :
    Total energy(eV)= -8.74523339266766E+02 ; Band energy (Ha)=  -4.8013326730E+00
--------------------------------------------------------------------------------

 Cartesian components of stress tensor (hartree/bohr^3)
  sigma(1 1)=  7.39145913E-05  sigma(3 2)=  0.00000000E+00
  sigma(2 2)=  7.39145914E-05  sigma(3 1)=  0.00000000E+00
  sigma(3 3)=  6.39980200E-05  sigma(2 1)=  0.00000000E+00

-Cartesian components of stress tensor (GPa)         [Pressure= -2.0774E+00 GPa]
- sigma(1 1)=  2.17464199E+00  sigma(3 2)=  0.00000000E+00
- sigma(2 2)=  2.17464199E+00  sigma(3 1)=  0.00000000E+00
- sigma(3 3)=  1.88288644E+00  sigma(2 1)=  0.00000000E+00

================================================================================
== DATASET  2 ==================================================================
-   nproc =    1

 Exchange-correlation functional for the present dataset will be:
  LDA: new Teter (4/93) with spin-polarized option - ixc=1
 Citation for XC functional:
  S. Goedecker, M. Teter, J. Huetter, PRB 54, 1703 (1996)

 Real(R)+Recip(G) space primitive vectors, cartesian coordinates (Bohr,Bohr^-1):
 R(1)=  6.0204074  0.0000000  0.0000000  G(1)=  0.1661017  0.0958989  0.0000000
 R(2)= -3.0102037  5.2138258  0.0000000  G(2)=  0.0000000  0.1917977  0.0000000
 R(3)=  0.0000000  0.0000000 19.1124045  G(3)=  0.0000000  0.0000000  0.0523220
 Unit cell volume ucvol=  5.9992605E+02 bohr^3
 Angles (23,13,12)=  9.00000000E+01  9.00000000E+01  1.20000000E+02 degrees

 getcut: wavevector=  0.0000  0.0000  0.0000  ngfft=  24  24  72
         ecut(hartree)=     17.000   => boxcut(ratio)=   2.02968
--------------------------------------------------------------------------------

_setup2: Arith. and geom. avg. npw (full set) are    2009.969    2009.937

================================================================================

     iter   Etot(hartree)      deltaE(h)  residm     vres2
 ETOT  1  -31.408923071630    -3.141E+01 6.168E-02 4.015E+03
 ETOT  2  -30.905312594254     5.036E-01 3.882E-03 7.204E+03
 ETOT  3  -32.157654729421    -1.252E+00 1.355E-02 2.134E+01
 ETOT  4  -32.165214728382    -7.560E-03 5.923E-03 1.393E+01
 ETOT  5  -32.164989710529     2.250E-04 2.588E-03 9.351E+00
 ETOT  6  -32.166146534812    -1.157E-03 1.221E-03 2.893E-01
 ETOT  7  -32.166161818259    -1.528E-05 7.409E-04 2.320E-01
 ETOT  8  -32.166207439600    -4.562E-05 4.615E-04 7.311E-02
 ETOT  9  -32.166209075263    -1.636E-06 3.899E-04 2.558E-02
 ETOT 10  -32.166212385357    -3.310E-06 3.424E-04 2.075E-04

 Cartesian components of stress tensor (hartree/bohr^3)
  sigma(1 1)=  7.11740248E-05  sigma(3 2)=  0.00000000E+00
  sigma(2 2)=  7.11740249E-05  sigma(3 1)=  0.00000000E+00
  sigma(3 3)=  1.81373841E-04  sigma(2 1)=  0.00000000E+00


 scprqt:  WARNING -
  nstep=   10 was not enough SCF cycles to converge;
  maximum energy difference=  3.310E-06 exceeds toldfe=  1.000E-06

 Integrated electronic density in atomic spheres:
 ------------------------------------------------
 Atom  Sphere_radius  Integrated_density
    1        2.00000          2.91239893
    2        2.00000          3.82009880
    3        2.00000          3.82009880
================================================================================

 ----iterations are completed or convergence reached----

 Mean square residual over all n,k,spin=   8.0315E-06; max=  3.4240E-04
 reduced coordinates (array xred) for    3 atoms
       0.000000000000      0.000000000000      0.000000000000
       0.666666666667      0.333333333333      0.162984781920
       0.666666666667      0.333333333333     -0.162984781920
 rms dE/dt=  1.0313E-01; max dE/dt=  2.1878E-01; dE/dt below (all hartree)
    1       0.000000000000      0.000000000000      0.000000000000
    2       0.000000000000      0.000000000000      0.218777851399
    3       0.000000000000      0.000000000000     -0.218777851399

 cartesian coordinates (angstrom) at end:
    1      0.00000000000000     0.00000000000000     0.00000000000000
    2      1.59293119411085     0.91967925371574     1.64840344945643
    3      1.59293119411085     0.91967925371574    -1.64840344945643

 cartesian forces (hartree/bohr) at end:
    1      0.00000000000000     0.00000000000000    -0.00000000000000
    2     -0.00000000000000    -0.00000000000000    -0.01144690358764
    3     -0.00000000000000    -0.00000000000000     0.01144690358764
 frms,max,avg= 5.3961221E-03 1.1446904E-02   0.000E+00  0.000E+00  0.000E+00 h/b

 cartesian forces (eV/Angstrom) at end:
    1      0.00000000000000     0.00000000000000    -0.00000000000000
    2     -0.00000000000000    -0.00000000000000    -0.58862339963900
    3     -0.00000000000000    -0.00000000000000     0.58862339963900
 frms,max,avg= 2.7747973E-01 5.8862340E-01   0.000E+00  0.000E+00  0.000E+00 e/A
 length scales=  6.020407410800  6.020407410800 19.112404479000 bohr
              =  3.185862388222  3.185862388222 10.113848851640 angstroms
 prteigrs : about to open file mos2_4o_DS2_EIG
 Fermi (or HOMO) energy (hartree) =  -0.09702   Average Vxc (hartree)=  -0.28291
 Eigenvalues (hartree) for nkpt=   8  k points:
 kpt#   1, nband= 10, wtk=  0.03125, kpt=  0.0000  0.0000  0.1250 (reduced coord)
  -0.59489   -0.55822   -0.28302   -0.16486   -0.16486   -0.15541   -0.12584   -0.12584
  -0.09769    0.01829
 prteigrs : prtvol=0 or 1, do not print more k-points.


--------------------------------------------------------------------------------
 Components of total free energy (in Hartree) :

    Kinetic energy  =  1.55858267353005E+01
    Hartree energy  =  2.59392264297292E+01
    XC energy       = -1.08203036493089E+01
    Ewald energy    = -3.10482230944750E+00
    PspCore energy  =  3.21846864015186E+00
    Loc. psp. energy= -5.71863617639981E+01
    NL   psp  energy= -5.79824646778408E+00
    >>>>>>>>> Etotal= -3.21662123853570E+01

 Other information on the energy :
    Total energy(eV)= -8.75287152540236E+02 ; Band energy (Ha)=  -4.7415114872E+00
--------------------------------------------------------------------------------

 Cartesian components of stress tensor (hartree/bohr^3)
  sigma(1 1)=  7.11740248E-05  sigma(3 2)=  0.00000000E+00
  sigma(2 2)=  7.11740249E-05  sigma(3 1)=  0.00000000E+00
  sigma(3 3)=  1.81373841E-04  sigma(2 1)=  0.00000000E+00

-Cartesian components of stress tensor (GPa)         [Pressure= -3.1747E+00 GPa]
- sigma(1 1)=  2.09401175E+00  sigma(3 2)=  0.00000000E+00
- sigma(2 2)=  2.09401176E+00  sigma(3 1)=  0.00000000E+00
- sigma(3 3)=  5.33620174E+00  sigma(2 1)=  0.00000000E+00

================================================================================
== DATASET  3 ==================================================================
-   nproc =    1

 Exchange-correlation functional for the present dataset will be:
  LDA: new Teter (4/93) with spin-polarized option - ixc=1
 Citation for XC functional:
  S. Goedecker, M. Teter, J. Huetter, PRB 54, 1703 (1996)

 Real(R)+Recip(G) space primitive vectors, cartesian coordinates (Bohr,Bohr^-1):
 R(1)=  6.0204074  0.0000000  0.0000000  G(1)=  0.1661017  0.0958989  0.0000000
 R(2)= -3.0102037  5.2138258  0.0000000  G(2)=  0.0000000  0.1917977  0.0000000
 R(3)=  0.0000000  0.0000000 19.1124045  G(3)=  0.0000000  0.0000000  0.0523220
 Unit cell volume ucvol=  5.9992605E+02 bohr^3
 Angles (23,13,12)=  9.00000000E+01  9.00000000E+01  1.20000000E+02 degrees

 getcut: wavevector=  0.0000  0.0000  0.0000  ngfft=  24  24  72
         ecut(hartree)=     17.000   => boxcut(ratio)=   2.02968
--------------------------------------------------------------------------------

_setup2: Arith. and geom. avg. npw (full set) are    2008.593    2008.565

================================================================================

     iter   Etot(hartree)      deltaE(h)  residm     vres2
 ETOT  1  -31.444582721867    -3.144E+01 4.753E-02 3.828E+03
 ETOT  2  -30.989725063272     4.549E-01 6.879E-03 6.747E+03
 ETOT  3  -32.154753070439    -1.165E+00 1.155E-02 2.419E+01
 ETOT  4  -32.162953546840    -8.200E-03 1.154E-02 1.802E+01
 ETOT  5  -32.163389428638    -4.359E-04 4.250E-03 7.708E+00
 ETOT  6  -32.164182288392    -7.929E-04 2.980E-03 3.274E-01
 ETOT  7  -32.164196639905    -1.435E-05 9.481E-04 2.284E-01
 ETOT  8  -32.164250210596    -5.357E-05 8.363E-04 1.163E-01
 ETOT  9  -32.164249641655     5.689E-07 1.211E-03 7.299E-02
 ETOT 10  -32.164262370655    -1.273E-05 1.789E-03 2.940E-04

 Cartesian components of stress tensor (hartree/bohr^3)
  sigma(1 1)=  6.77549071E-05  sigma(3 2)=  0.00000000E+00
  sigma(2 2)=  6.77549071E-05  sigma(3 1)=  0.00000000E+00
  sigma(3 3)=  1.73681941E-04  sigma(2 1)=  0.00000000E+00


 scprqt:  WARNING -
  nstep=   10 was not enough SCF cycles to converge;
  maximum energy difference=  1.273E-05 exceeds toldfe=  1.000E-06

 Integrated electronic density in atomic spheres:
 ------------------------------------------------
 Atom  Sphere_radius  Integrated_density
    1        2.00000          2.91066072
    2        2.00000          3.82110955
    3        2.00000          3.82110955
================================================================================

 ----iterations are completed or convergence reached----

 Mean square residual over all n,k,spin=   1.4360E-05; max=  1.7888E-03
 reduced coordinates (array xred) for    3 atoms
       0.000000000000      0.000000000000      0.000000000000
       0.666666666667      0.333333333333      0.162984781920
       0.666666666667      0.333333333333     -0.162984781920
 rms dE/dt=  9.6650E-02; max dE/dt=  2.0502E-01; dE/dt below (all hartree)
    1       0.000000000000      0.000000000000      0.000000000000
    2       0.000000000000      0.000000000000      0.205024581197
    3       0.000000000000      0.000000000000     -0.205024581197

 cartesian coordinates (angstrom) at end:
    1      0.00000000000000     0.00000000000000     0.00000000000000
    2      1.59293119411085     0.91967925371574     1.64840344945643
    3      1.59293119411085     0.91967925371574    -1.64840344945643

 cartesian forces (hartree/bohr) at end:
    1     -0.00000000000000    -0.00000000000000    -0.00000000000000
    2     -0.00000000000000    -0.00000000000000    -0.01072730442798
    3     -0.00000000000000    -0.00000000000000     0.01072730442798
 frms,max,avg= 5.0568998E-03 1.0727304E-02   0.000E+00  0.000E+00  0.000E+00 h/b

 cartesian forces (eV/Angstrom) at end:
    1     -0.00000000000000    -0.00000000000000    -0.00000000000000
    2     -0.00000000000000    -0.00000000000000    -0.55162012617807
    3     -0.00000000000000    -0.00000000000000     0.55162012617807
 frms,max,avg= 2.6003622E-01 5.5162013E-01   0.000E+00  0.000E+00  0.000E+00 e/A
 length scales=  6.020407410800  6.020407410800 19.112404479000 bohr
              =  3.185862388222  3.185862388222 10.113848851640 angstroms
 prteigrs : about to open file mos2_4o_DS3_EIG
 Fermi (or HOMO) energy (hartree) =  -0.08398   Average Vxc (hartree)=  -0.28298
 Eigenvalues (hartree) for nkpt=  21  k points:
 kpt#   1, nband= 10, wtk=  0.00926, kpt=  0.0000  0.0000  0.0833 (reduced coord)
  -0.59511   -0.55836   -0.28341   -0.16555   -0.16555   -0.15538   -0.12634   -0.12634
  -0.09820    0.01769
 prteigrs : prtvol=0 or 1, do not print more k-points.


--------------------------------------------------------------------------------
 Components of total free energy (in Hartree) :

    Kinetic energy  =  1.55835884175939E+01
    Hartree energy  =  2.59331022618100E+01
    XC energy       = -1.08202847165602E+01
    Ewald energy    = -3.10482230944750E+00
    PspCore energy  =  3.21846864015186E+00
    Loc. psp. energy= -5.71839038029068E+01
    NL   psp  energy= -5.79041086129598E+00
    >>>>>>>>> Etotal= -3.21642623706548E+01

 Other information on the energy :
    Total energy(eV)= -8.75234089941641E+02 ; Band energy (Ha)=  -4.7456390433E+00
--------------------------------------------------------------------------------

 Cartesian components of stress tensor (hartree/bohr^3)
  sigma(1 1)=  6.77549071E-05  sigma(3 2)=  0.00000000E+00
  sigma(2 2)=  6.77549071E-05  sigma(3 1)=  0.00000000E+00
  sigma(3 3)=  1.73681941E-04  sigma(2 1)=  0.00000000E+00

-Cartesian components of stress tensor (GPa)         [Pressure= -3.0322E+00 GPa]
- sigma(1 1)=  1.99341785E+00  sigma(3 2)=  0.00000000E+00
- sigma(2 2)=  1.99341785E+00  sigma(3 1)=  0.00000000E+00
- sigma(3 3)=  5.10989825E+00  sigma(2 1)=  0.00000000E+00

== END DATASET(S) ==============================================================
================================================================================
  
 -outvars: echo values of variables after computation  --------
            acell      6.0204074108E+00  6.0204074108E+00  1.9112404479E+01 Bohr
              amu      9.59400000E+01  3.20660000E+01
           diemac      1.20000000E+01
             ecut      1.70000000E+01 Hartree
           etotal1    -3.2138142763E+01
           etotal2    -3.2166212385E+01
           etotal3    -3.2164262371E+01
            fcart1     1.4908433042E-29  8.6073878303E-30 -4.5175090520E-21
                      -7.4542165212E-30 -4.3036939151E-30  9.5167331500E-05
                      -7.4542165212E-30 -4.3036939151E-30 -9.5167331500E-05
            fcart2     1.4908433042E-29  8.6073878303E-30 -0.0000000000E+00
                      -7.4542165212E-30 -4.3036939151E-30 -1.1446903588E-02
                      -7.4542165212E-30 -4.3036939151E-30  1.1446903588E-02
            fcart3    -0.0000000000E+00 -0.0000000000E+00 -0.0000000000E+00
                      -0.0000000000E+00 -0.0000000000E+00 -1.0727304428E-02
                      -0.0000000000E+00 -0.0000000000E+00  1.0727304428E-02
-          fftalg         112
           jdtset        1    2    3
              kpt1     0.00000000E+00  0.00000000E+00  2.50000000E-01
                       5.00000000E-01  0.00000000E+00  2.50000000E-01
              kpt2     0.00000000E+00  0.00000000E+00  1.25000000E-01
                       2.50000000E-01  0.00000000E+00  1.25000000E-01
                       5.00000000E-01  0.00000000E+00  1.25000000E-01
                       2.50000000E-01  2.50000000E-01  1.25000000E-01
                       0.00000000E+00  0.00000000E+00  3.75000000E-01
                       2.50000000E-01  0.00000000E+00  3.75000000E-01
                       5.00000000E-01  0.00000000E+00  3.75000000E-01
                       2.50000000E-01  2.50000000E-01  3.75000000E-01
              kpt3     0.00000000E+00  0.00000000E+00  8.33333333E-02
                       1.66666667E-01  0.00000000E+00  8.33333333E-02
                       3.33333333E-01  0.00000000E+00  8.33333333E-02
                       5.00000000E-01  0.00000000E+00  8.33333333E-02
                       1.66666667E-01  1.66666667E-01  8.33333333E-02
                       3.33333333E-01  1.66666667E-01  8.33333333E-02
                       3.33333333E-01  3.33333333E-01  8.33333333E-02
                       0.00000000E+00  0.00000000E+00  2.50000000E-01
                       1.66666667E-01  0.00000000E+00  2.50000000E-01
                       3.33333333E-01  0.00000000E+00  2.50000000E-01
                       5.00000000E-01  0.00000000E+00  2.50000000E-01
                       1.66666667E-01  1.66666667E-01  2.50000000E-01
                       3.33333333E-01  1.66666667E-01  2.50000000E-01
                       3.33333333E-01  3.33333333E-01  2.50000000E-01
                       0.00000000E+00  0.00000000E+00  4.16666667E-01
                       1.66666667E-01  0.00000000E+00  4.16666667E-01
                       3.33333333E-01  0.00000000E+00  4.16666667E-01
                       5.00000000E-01  0.00000000E+00  4.16666667E-01
                       1.66666667E-01  1.66666667E-01  4.16666667E-01
                       3.33333333E-01  1.66666667E-01  4.16666667E-01
                       3.33333333E-01  3.33333333E-01  4.16666667E-01
         kptrlatt1       2    0    0      0    2    0      0    0    2
         kptrlatt2       4    0    0      0    4    0      0    0    4
         kptrlatt3       6    0    0      0    6    0      0    0    6
          kptrlen1     1.20408148E+01
          kptrlen2     2.40816296E+01
          kptrlen3     3.61224445E+01
P           mkmem1          2
P           mkmem2          8
P           mkmem3         21
            natom           3
            nband1         10
            nband2         10
            nband3         10
           ndtset           3
            ngfft          24      24      72
             nkpt1          2
             nkpt2          8
             nkpt3         21
            nstep          10
             nsym          12
           ntypat           2
              occ1     2.000000  2.000000  2.000000  2.000000  2.000000  2.000000
                       2.000000  2.000000  2.000000  0.000000
              occ2     2.000000  2.000000  2.000000  2.000000  2.000000  2.000000
                       2.000000  2.000000  2.000000  0.000000
              occ3     2.000000  2.000000  2.000000  2.000000  2.000000  2.000000
                       2.000000  2.000000  2.000000  0.000000
            rprim      1.0000000000E+00  0.0000000000E+00  0.0000000000E+00
                      -5.0000000000E-01  8.6602540378E-01  0.0000000000E+00
                       0.0000000000E+00  0.0000000000E+00  1.0000000000E+00
           shiftk      0.00000000E+00  0.00000000E+00  5.00000000E-01
          spgroup         187
           strten1     7.3914591315E-05  7.3914591370E-05  6.3998019951E-05
                       0.0000000000E+00  0.0000000000E+00  0.0000000000E+00
           strten2     7.1174024848E-05  7.1174024903E-05  1.8137384109E-04
                       0.0000000000E+00  0.0000000000E+00  0.0000000000E+00
           strten3     6.7754907054E-05  6.7754907109E-05  1.7368194051E-04
                       0.0000000000E+00  0.0000000000E+00  0.0000000000E+00
           symrel      1  0  0   0  1  0   0  0  1       0 -1  0  -1  0  0   0  0 -1
                      -1 -1  0   1  0  0   0  0 -1      -1  0  0   1  1  0   0  0  1
                       0  1  0  -1 -1  0   0  0  1       1  1  0   0 -1  0   0  0 -1
                       1  0  0   0  1  0   0  0 -1       0 -1  0  -1  0  0   0  0  1
                      -1 -1  0   1  0  0   0  0  1      -1  0  0   1  1  0   0  0 -1
                       0  1  0  -1 -1  0   0  0 -1       1  1  0   0 -1  0   0  0  1
           toldfe      1.00000000E-06 Hartree
            typat      1  2  2
              wtk1       0.25000    0.75000
              wtk2       0.03125    0.18750    0.09375    0.18750    0.03125    0.18750
                         0.09375    0.18750
              wtk3       0.00926    0.05556    0.05556    0.02778    0.05556    0.11111
                         0.01852    0.00926    0.05556    0.05556    0.02778    0.05556
                         0.11111    0.01852    0.00926    0.05556    0.05556    0.02778
                         0.05556    0.11111    0.01852
           xangst      0.0000000000E+00  0.0000000000E+00  0.0000000000E+00
                       1.5929311941E+00  9.1967925372E-01  1.6484034495E+00
                       1.5929311941E+00  9.1967925372E-01 -1.6484034495E+00
            xcart      0.0000000000E+00  0.0000000000E+00  0.0000000000E+00
                       3.0102037054E+00  1.7379419196E+00  3.1150310760E+00
                       3.0102037054E+00  1.7379419196E+00 -3.1150310760E+00
             xred      0.0000000000E+00  0.0000000000E+00  0.0000000000E+00
                       6.6666666667E-01  3.3333333333E-01  1.6298478192E-01
                       6.6666666667E-01  3.3333333333E-01 -1.6298478192E-01
            znucl       42.00000   16.00000

================================================================================

- Total cpu        time (s,m,h):        124.1        2.07      0.034
- Total wall clock time (s,m,h):         36.3        0.60      0.010
-
- For major independent code sections, cpu and wall times (sec),
-  as well as % of the time and number of calls for node 0-
-<BEGIN_TIMER mpi_nprocs = 1, omp_nthreads = 1, mpi_rank = 0>
- cpu_time =          124.1, wall_time =           36.3
-
- routine                        cpu     %       wall     %      number of calls  Gflops    Speedup Efficacity
-                                                                  (-1=no count)
- fourwf%(pot)                  64.732  52.2     18.347  50.6          18600      -1.00        3.53       3.53
- nonlop(apply)                 27.912  22.5      7.860  21.7          18600      -1.00        3.55       3.55
- projbd                        12.868  10.4      3.675  10.1          29760      -1.00        3.50       3.50
- fourwf%(den)                   6.136   4.9      1.563   4.3           2790      -1.00        3.93       3.93
- vtowfk(ssdiag)                 1.820   1.5      0.491   1.4             -1      -1.00        3.71       3.71
- getghc-other                   1.264   1.0      0.351   1.0             -1      -1.00        3.60       3.60
- pspini                         1.068   0.9      1.065   2.9              3      -1.00        1.00       1.00
- nonlop(forstr)                 0.812   0.7      0.385   1.1            279      -1.00        2.11       2.11
- others (105)                   2.104   1.7      0.848   2.3             -1      -1.00        2.48       2.48
-<END_TIMER>
-
- subtotal                     118.716  95.7     34.585  95.3                                  3.43       3.43

- For major independent code sections, cpu and wall times (sec),
- as well as % of the total time and number of calls 

-<BEGIN_TIMER mpi_nprocs = 1, omp_nthreads = 1, mpi_rank = world>
- cpu_time =         124.1, wall_time =          36.3
-
- routine                         cpu     %       wall     %      number of calls Gflops    Speedup Efficacity
-                                                                  (-1=no count)
- fourwf%(pot)                  64.732  52.2     18.347  50.6          18600      -1.00        3.53       3.53
- nonlop(apply)                 27.912  22.5      7.860  21.7          18600      -1.00        3.55       3.55
- projbd                        12.868  10.4      3.675  10.1          29760      -1.00        3.50       3.50
- fourwf%(den)                   6.136   4.9      1.563   4.3           2790      -1.00        3.93       3.93
- vtowfk(ssdiag)                 1.820   1.5      0.491   1.4             -1      -1.00        3.71       3.71
- getghc-other                   1.264   1.0      0.351   1.0             -1      -1.00        3.60       3.60
- pspini                         1.068   0.9      1.065   2.9              3      -1.00        1.00       1.00
- nonlop(forstr)                 0.812   0.7      0.385   1.1            279      -1.00        2.11       2.11
- others (105)                   2.104   1.7      0.848   2.3             -1      -1.00        2.48       2.48
-<END_TIMER>

- subtotal                     118.716  95.7     34.585  95.3                                  3.43       3.43

================================================================================

 Suggested references for the acknowledgment of ABINIT usage.

 The users of ABINIT have little formal obligations with respect to the ABINIT group
 (those specified in the GNU General Public License, http://www.gnu.org/copyleft/gpl.txt).
 However, it is common practice in the scientific literature,
 to acknowledge the efforts of people that have made the research possible.
 In this spirit, please find below suggested citations of work written by ABINIT developers,
 corresponding to implementations inside of ABINIT that you have used in the present run.
 Note also that it will be of great value to readers of publications presenting these results,
 to read papers enabling them to understand the theoretical formalism and details
 of the ABINIT implementation.
 For information on why they are suggested, see also http://www.abinit.org/about/?text=acknowledgments.
-
- [1] Recent developments in the ABINIT software package.
- Computer Phys. Comm. 205, 106 (2016).
- X.Gonze, F.Jollet, F.Abreu Araujo, D.Adams, B.Amadon, T.Applencourt,
- C.Audouze, J.-M.Beuken, J.Bieder, A.Bokhanchuk, E.Bousquet, F.Bruneval
- D.Caliste, M.Cote, F.Dahm, F.Da Pieve, M.Delaveau, M.Di Gennaro,
- B.Dorado, C.Espejo, G.Geneste, L.Genovese, A.Gerossier, M.Giantomassi,
- Y.Gillet, D.R.Hamann, L.He, G.Jomard, J.Laflamme Janssen, S.Le Roux,
- A.Levitt, A.Lherbier, F.Liu, I.Lukacevic, A.Martin, C.Martins,
- M.J.T.Oliveira, S.Ponce, Y.Pouillon, T.Rangel, G.-M.Rignanese,
- A.H.Romero, B.Rousseau, O.Rubel, A.A.Shukri, M.Stankovski, M.Torrent,
- M.J.Van Setten, B.Van Troeye, M.J.Verstraete, D.Waroquier, J.Wiktor,
- B.Xue, A.Zhou, J.W.Zwanziger.
- Comment : the fourth generic paper describing the ABINIT project.
- Note that a version of this paper, that is not formatted for Computer Phys. Comm. 
- is available at http://www.abinit.org/about/ABINIT16.pdf .
- The licence allows the authors to put it on the Web.
-
- [2] Optimized norm-conserving Vanderbilt pseudopotentials.
- D.R. Hamann, Phys. Rev. B 88, 085117 (2013).
- Comment: Some pseudopotential generated using the ONCVPSP code were used.
-
- [3] ABINIT : First-principles approach of materials and nanosystem properties.
- Computer Phys. Comm. 180, 2582-2615 (2009).
- X. Gonze, B. Amadon, P.-M. Anglade, J.-M. Beuken, F. Bottin, P. Boulanger, F. Bruneval,
- D. Caliste, R. Caracas, M. Cote, T. Deutsch, L. Genovese, Ph. Ghosez, M. Giantomassi
- S. Goedecker, D.R. Hamann, P. Hermet, F. Jollet, G. Jomard, S. Leroux, M. Mancini, S. Mazevet,
- M.J.T. Oliveira, G. Onida, Y. Pouillon, T. Rangel, G.-M. Rignanese, D. Sangalli, R. Shaltaf,
- M. Torrent, M.J. Verstraete, G. Zerah, J.W. Zwanziger
- Comment : the third generic paper describing the ABINIT project.
- Note that a version of this paper, that is not formatted for Computer Phys. Comm. 
- is available at http://www.abinit.org/about/ABINIT_CPC_v10.pdf .
- The licence allows the authors to put it on the Web.
-
- [4] A brief introduction to the ABINIT software package.
- Z. Kristallogr. 220, 558-562 (2005).
- X. Gonze, G.-M. Rignanese, M. Verstraete, J.-M. Beuken, Y. Pouillon, R. Caracas, F. Jollet,
- M. Torrent, G. Zerah, M. Mikami, Ph. Ghosez, M. Veithen, J.-Y. Raty, V. Olevano, F. Bruneval,
- L. Reining, R. Godby, G. Onida, D.R. Hamann, and D.C. Allan.
- Comment : the second generic paper describing the ABINIT project. Note that this paper
- should be cited especially if you are using the GW part of ABINIT, as several authors
- of this part are not in the list of authors of the first or third paper.
- The .pdf of the latter paper is available at http://www.abinit.org/about/zfk_0505-06_558-562.pdf.
- Note that it should not redistributed (Copyright by Oldenburg Wissenshaftverlag,
- the licence allows the authors to put it on the Web).
-
- And optionally:
-
- [5] First-principles computation of material properties : the ABINIT software project. 
- X. Gonze, J.-M. Beuken, R. Caracas, F. Detraux, M. Fuchs, G.-M. Rignanese, L. Sindic,
- M. Verstraete, G. Zerah, F. Jollet, M. Torrent, A. Roy, M. Mikami, Ph. Ghosez, J.-Y. Raty, D.C. Allan.
- Computational Materials Science 25, 478-492 (2002). http://dx.doi.org/10.1016/S0927-0256(02)00325-7
- Comment : the original paper describing the ABINIT project.
-
- Proc.   0 individual time (sec): cpu=        124.1  wall=         36.3

================================================================================

 Calculation completed.
.Delivered   6 WARNINGs and   0 COMMENTs to log file.
+Overall time at end (sec) : cpu=        124.1  wall=         36.3
