
.Version 8.4.3 of ABINIT 
.(sequential version, prepared for a x86_64_linux_gnu5.4 computer) 

.Copyright (C) 1998-2017 ABINIT group . 
 ABINIT comes with ABSOLUTELY NO WARRANTY.
 It is free software, and you are welcome to redistribute it
 under certain conditions (GNU General Public License,
 see ~abinit/COPYING or http://www.gnu.org/copyleft/gpl.txt).

 ABINIT is a project of the Universite Catholique de Louvain,
 Corning Inc. and other collaborators, see ~abinit/doc/developers/contributors.txt .
 Please read ~abinit/doc/users/acknowledgments.html for suggested
 acknowledgments of the ABINIT effort.
 For more information, see http://www.abinit.org .

.Starting date : Wed 16 Aug 2017.
- ( at 11h09 )
  
- input  file    -> agnr_4.in
- output file    -> agnr_4.out
- root for input  files -> agnr_4i
- root for output files -> agnr_4o


 DATASET    1 : space group Pm m 2 (# 25); Bravais oP (primitive ortho.)
================================================================================
 Values of the parameters that define the memory need for DATASET  1.
     intxc =       0    ionmov =       0      iscf =       7    lmnmax =       1
     lnmax =       1     mgfft =     432  mpssoang =       2    mqgrid =   20765
     natom =      28  nloc_mem =       1    nspden =       1   nspinor =       1
    nsppol =       1      nsym =       4    n1xccc =    2501    ntypat =       1
    occopt =       1   xclevel =       1
-    mband =          60        mffmem =           1         mkmem =           6
       mpw =      191376          nfft =     3110400          nkpt =           6
================================================================================
P This job should need less than                    1981.065 Mbytes of memory.
  Rough estimation (10% accuracy) of disk space for files :
_ WF disk file :   1051.262 Mbytes ; DEN or POT disk file :     23.732 Mbytes.
================================================================================


 DATASET    2 : space group Pm m 2 (# 25); Bravais oP (primitive ortho.)
================================================================================
 Values of the parameters that define the memory need for DATASET  2.
     intxc =       0    ionmov =       0      iscf =       7    lmnmax =       1
     lnmax =       1     mgfft =     432  mpssoang =       2    mqgrid =   20765
     natom =      28  nloc_mem =       1    nspden =       1   nspinor =       1
    nsppol =       1      nsym =       4    n1xccc =    2501    ntypat =       1
    occopt =       1   xclevel =       1
-    mband =          60        mffmem =           1         mkmem =           9
       mpw =      191372          nfft =     3110400          nkpt =           9
================================================================================
P This job should need less than                    2513.366 Mbytes of memory.
  Rough estimation (10% accuracy) of disk space for files :
_ WF disk file :   1576.859 Mbytes ; DEN or POT disk file :     23.732 Mbytes.
================================================================================


 DATASET    3 : space group Pm m 2 (# 25); Bravais oP (primitive ortho.)
================================================================================
 Values of the parameters that define the memory need for DATASET  3.
     intxc =       0    ionmov =       0      iscf =       7    lmnmax =       1
     lnmax =       1     mgfft =     432  mpssoang =       2    mqgrid =   20765
     natom =      28  nloc_mem =       1    nspden =       1   nspinor =       1
    nsppol =       1      nsym =       4    n1xccc =    2501    ntypat =       1
    occopt =       1   xclevel =       1
-    mband =          60        mffmem =           1         mkmem =          11
       mpw =      191376          nfft =     3110400          nkpt =          11
================================================================================
P This job should need less than                    2868.290 Mbytes of memory.
  Rough estimation (10% accuracy) of disk space for files :
_ WF disk file :   1927.312 Mbytes ; DEN or POT disk file :     23.732 Mbytes.
================================================================================

--------------------------------------------------------------------------------
------------- Echo of variables that govern the present computation ------------
--------------------------------------------------------------------------------
-
- outvars: echo of selected default values                                      
-   iomode0 =  0 , fftalg0 =112 , wfoptalg0 =  0
-
- outvars: echo of global parameters not present in the input file              
-  max_nthreads =    0
-
 -outvars: echo values of preprocessed input variables --------
            acell      8.0502333261E+00  1.0582466344E+02  5.6691783987E+01 Bohr
              amu      1.20110000E+01
           diemac      1.00000000E+01
             ecut      1.90000000E+01 Hartree
-          fftalg         112
           getden          -1
           istwfk1       2    0    0    0    0    3
           istwfk2       2    0    0    0    0    0    0    0    3
           istwfk3       2    0    0    0    0    0    0    0    0    0
                         3
           jdtset        1    2    3
              kpt1     0.00000000E+00  0.00000000E+00  0.00000000E+00
                       1.00000000E-01  0.00000000E+00  0.00000000E+00
                       2.00000000E-01  0.00000000E+00  0.00000000E+00
                       3.00000000E-01  0.00000000E+00  0.00000000E+00
                       4.00000000E-01  0.00000000E+00  0.00000000E+00
                       5.00000000E-01  0.00000000E+00  0.00000000E+00
              kpt2     0.00000000E+00  0.00000000E+00  0.00000000E+00
                       6.25000000E-02  0.00000000E+00  0.00000000E+00
                       1.25000000E-01  0.00000000E+00  0.00000000E+00
                       1.87500000E-01  0.00000000E+00  0.00000000E+00
                       2.50000000E-01  0.00000000E+00  0.00000000E+00
                       3.12500000E-01  0.00000000E+00  0.00000000E+00
                       3.75000000E-01  0.00000000E+00  0.00000000E+00
                       4.37500000E-01  0.00000000E+00  0.00000000E+00
                       5.00000000E-01  0.00000000E+00  0.00000000E+00
              kpt3     0.00000000E+00  0.00000000E+00  0.00000000E+00
                       5.00000000E-02  0.00000000E+00  0.00000000E+00
                       1.00000000E-01  0.00000000E+00  0.00000000E+00
                       1.50000000E-01  0.00000000E+00  0.00000000E+00
                       2.00000000E-01  0.00000000E+00  0.00000000E+00
                       2.50000000E-01  0.00000000E+00  0.00000000E+00
                       3.00000000E-01  0.00000000E+00  0.00000000E+00
                       3.50000000E-01  0.00000000E+00  0.00000000E+00
                       4.00000000E-01  0.00000000E+00  0.00000000E+00
                       4.50000000E-01  0.00000000E+00  0.00000000E+00
                       5.00000000E-01  0.00000000E+00  0.00000000E+00
         kptrlatt1      10    0    0      0    1    0      0    0    1
         kptrlatt2      16    0    0      0    1    0      0    0    1
         kptrlatt3      20    0    0      0    1    0      0    0    1
          kptrlen1     8.05023333E+01
          kptrlen2     1.28803733E+02
          kptrlen3     1.61004667E+02
P           mkmem1          6
P           mkmem2          9
P           mkmem3         11
            natom          28
            nband1         60
            nband2         60
            nband3         60
           ndtset           3
            ngfft          32     432     225
             nkpt1          6
             nkpt2          9
             nkpt3         11
            nstep          10
             nsym           4
           ntypat           1
              occ1     2.000000  2.000000  2.000000  2.000000  2.000000  2.000000
                       2.000000  2.000000  2.000000  2.000000  2.000000  2.000000
                       2.000000  2.000000  2.000000  2.000000  2.000000  2.000000
                       2.000000  2.000000  2.000000  2.000000  2.000000  2.000000
                       2.000000  2.000000  2.000000  2.000000  2.000000  2.000000
                       2.000000  2.000000  2.000000  2.000000  2.000000  2.000000
                       2.000000  2.000000  2.000000  2.000000  2.000000  2.000000
                       2.000000  2.000000  2.000000  2.000000  2.000000  2.000000
                       2.000000  2.000000  2.000000  2.000000  2.000000  2.000000
                       2.000000  2.000000  0.000000  0.000000  0.000000  0.000000
              occ2     2.000000  2.000000  2.000000  2.000000  2.000000  2.000000
                       2.000000  2.000000  2.000000  2.000000  2.000000  2.000000
                       2.000000  2.000000  2.000000  2.000000  2.000000  2.000000
                       2.000000  2.000000  2.000000  2.000000  2.000000  2.000000
                       2.000000  2.000000  2.000000  2.000000  2.000000  2.000000
                       2.000000  2.000000  2.000000  2.000000  2.000000  2.000000
                       2.000000  2.000000  2.000000  2.000000  2.000000  2.000000
                       2.000000  2.000000  2.000000  2.000000  2.000000  2.000000
                       2.000000  2.000000  2.000000  2.000000  2.000000  2.000000
                       2.000000  2.000000  0.000000  0.000000  0.000000  0.000000
              occ3     2.000000  2.000000  2.000000  2.000000  2.000000  2.000000
                       2.000000  2.000000  2.000000  2.000000  2.000000  2.000000
                       2.000000  2.000000  2.000000  2.000000  2.000000  2.000000
                       2.000000  2.000000  2.000000  2.000000  2.000000  2.000000
                       2.000000  2.000000  2.000000  2.000000  2.000000  2.000000
                       2.000000  2.000000  2.000000  2.000000  2.000000  2.000000
                       2.000000  2.000000  2.000000  2.000000  2.000000  2.000000
                       2.000000  2.000000  2.000000  2.000000  2.000000  2.000000
                       2.000000  2.000000  2.000000  2.000000  2.000000  2.000000
                       2.000000  2.000000  0.000000  0.000000  0.000000  0.000000
          spgroup          25
           symrel      1  0  0   0  1  0   0  0  1      -1  0  0   0  1  0   0  0 -1
                       1  0  0   0  1  0   0  0 -1      -1  0  0   0  1  0   0  0  1
            tnons      0.0000000  0.0000000  0.0000000     0.3333333  0.0000000  0.0000000
                       0.0000000  0.0000000  0.0000000     0.3333333  0.0000000  0.0000000
           toldfe      1.00000000E-06 Hartree
            typat      1  1  1  1  1  1  1  1  1  1  1  1  1  1  1  1  1  1  1  1
                       1  1  1  1  1  1  1  1
              wtk1       0.10000    0.20000    0.20000    0.20000    0.20000    0.10000
              wtk2       0.06250    0.12500    0.12500    0.12500    0.12500    0.12500
                         0.12500    0.12500    0.06250
              wtk3       0.05000    0.10000    0.10000    0.10000    0.10000    0.10000
                         0.10000    0.10000    0.10000    0.10000    0.05000
           xangst      0.0000000000E+00  0.0000000000E+00  0.0000000000E+00
                       2.1300000000E+00  1.2297600000E+00  0.0000000000E+00
                       0.0000000000E+00  2.4595100000E+00  0.0000000000E+00
                       2.1300000000E+00  3.6892700000E+00  0.0000000000E+00
                       0.0000000000E+00  4.9190200000E+00  0.0000000000E+00
                       2.1300000000E+00  6.1487800000E+00  0.0000000000E+00
                       0.0000000000E+00  7.3785400000E+00  0.0000000000E+00
                       2.1300000000E+00  8.6082900000E+00  0.0000000000E+00
                       0.0000000000E+00  9.8380500000E+00  0.0000000000E+00
                       2.1300000000E+00  1.1067800000E+01  0.0000000000E+00
                       0.0000000000E+00  1.2297560000E+01  0.0000000000E+00
                       2.1300000000E+00  1.3527320000E+01  0.0000000000E+00
                       0.0000000000E+00  1.4757070000E+01  0.0000000000E+00
                       2.1300000000E+00  1.5986830000E+01  0.0000000000E+00
                       1.4200000000E+00  0.0000000000E+00  0.0000000000E+00
                      -7.1000000000E-01  1.2297600000E+00  0.0000000000E+00
                       1.4200000000E+00  2.4595100000E+00  0.0000000000E+00
                      -7.1000000000E-01  3.6892700000E+00  0.0000000000E+00
                       1.4200000000E+00  4.9190200000E+00  0.0000000000E+00
                      -7.1000000000E-01  6.1487800000E+00  0.0000000000E+00
                       1.4200000000E+00  7.3785400000E+00  0.0000000000E+00
                      -7.1000000000E-01  8.6082900000E+00  0.0000000000E+00
                       1.4200000000E+00  9.8380500000E+00  0.0000000000E+00
                      -7.1000000000E-01  1.1067800000E+01  0.0000000000E+00
                       1.4200000000E+00  1.2297560000E+01  0.0000000000E+00
                      -7.1000000000E-01  1.3527320000E+01  0.0000000000E+00
                       1.4200000000E+00  1.4757070000E+01  0.0000000000E+00
                      -7.1000000000E-01  1.5986830000E+01  0.0000000000E+00
            xcart      0.0000000000E+00  0.0000000000E+00  0.0000000000E+00
                       4.0251166630E+00  2.3239096092E+00  0.0000000000E+00
                       0.0000000000E+00  4.6478003211E+00  0.0000000000E+00
                       4.0251166630E+00  6.9717099303E+00  0.0000000000E+00
                       0.0000000000E+00  9.2956006422E+00  0.0000000000E+00
                       4.0251166630E+00  1.1619510251E+01  0.0000000000E+00
                       0.0000000000E+00  1.3943419861E+01  0.0000000000E+00
                       4.0251166630E+00  1.6267310572E+01  0.0000000000E+00
                       0.0000000000E+00  1.8591220182E+01  0.0000000000E+00
                       4.0251166630E+00  2.0915110894E+01  0.0000000000E+00
                       0.0000000000E+00  2.3239020503E+01  0.0000000000E+00
                       4.0251166630E+00  2.5562930112E+01  0.0000000000E+00
                       0.0000000000E+00  2.7886820824E+01  0.0000000000E+00
                       4.0251166630E+00  3.0210730433E+01  0.0000000000E+00
                       2.6834111087E+00  0.0000000000E+00  0.0000000000E+00
                      -1.3417055543E+00  2.3239096092E+00  0.0000000000E+00
                       2.6834111087E+00  4.6478003211E+00  0.0000000000E+00
                      -1.3417055543E+00  6.9717099303E+00  0.0000000000E+00
                       2.6834111087E+00  9.2956006422E+00  0.0000000000E+00
                      -1.3417055543E+00  1.1619510251E+01  0.0000000000E+00
                       2.6834111087E+00  1.3943419861E+01  0.0000000000E+00
                      -1.3417055543E+00  1.6267310572E+01  0.0000000000E+00
                       2.6834111087E+00  1.8591220182E+01  0.0000000000E+00
                      -1.3417055543E+00  2.0915110894E+01  0.0000000000E+00
                       2.6834111087E+00  2.3239020503E+01  0.0000000000E+00
                      -1.3417055543E+00  2.5562930112E+01  0.0000000000E+00
                       2.6834111087E+00  2.7886820824E+01  0.0000000000E+00
                      -1.3417055543E+00  3.0210730433E+01  0.0000000000E+00
             xred      0.0000000000E+00  0.0000000000E+00  0.0000000000E+00
                       5.0000000000E-01  2.1960000000E-02  0.0000000000E+00
                       0.0000000000E+00  4.3919821429E-02  0.0000000000E+00
                       5.0000000000E-01  6.5879821429E-02  0.0000000000E+00
                       0.0000000000E+00  8.7839642857E-02  0.0000000000E+00
                       5.0000000000E-01  1.0979964286E-01  0.0000000000E+00
                       0.0000000000E+00  1.3175964286E-01  0.0000000000E+00
                       5.0000000000E-01  1.5371946429E-01  0.0000000000E+00
                       0.0000000000E+00  1.7567946429E-01  0.0000000000E+00
                       5.0000000000E-01  1.9763928571E-01  0.0000000000E+00
                       0.0000000000E+00  2.1959928571E-01  0.0000000000E+00
                       5.0000000000E-01  2.4155928571E-01  0.0000000000E+00
                       0.0000000000E+00  2.6351910714E-01  0.0000000000E+00
                       5.0000000000E-01  2.8547910714E-01  0.0000000000E+00
                       3.3333333333E-01  0.0000000000E+00  0.0000000000E+00
                      -1.6666666667E-01  2.1960000000E-02  0.0000000000E+00
                       3.3333333333E-01  4.3919821429E-02  0.0000000000E+00
                      -1.6666666667E-01  6.5879821429E-02  0.0000000000E+00
                       3.3333333333E-01  8.7839642857E-02  0.0000000000E+00
                      -1.6666666667E-01  1.0979964286E-01  0.0000000000E+00
                       3.3333333333E-01  1.3175964286E-01  0.0000000000E+00
                      -1.6666666667E-01  1.5371946429E-01  0.0000000000E+00
                       3.3333333333E-01  1.7567946429E-01  0.0000000000E+00
                      -1.6666666667E-01  1.9763928571E-01  0.0000000000E+00
                       3.3333333333E-01  2.1959928571E-01  0.0000000000E+00
                      -1.6666666667E-01  2.4155928571E-01  0.0000000000E+00
                       3.3333333333E-01  2.6351910714E-01  0.0000000000E+00
                      -1.6666666667E-01  2.8547910714E-01  0.0000000000E+00
            znucl        6.00000

================================================================================

 chkinp: Checking input parameters for consistency, jdtset=   1.

 chkinp: Checking input parameters for consistency, jdtset=   2.

 chkinp: Checking input parameters for consistency, jdtset=   3.

================================================================================
== DATASET  1 ==================================================================
-   nproc =    1

 Exchange-correlation functional for the present dataset will be:
  LDA: new Teter (4/93) with spin-polarized option - ixc=1
 Citation for XC functional:
  S. Goedecker, M. Teter, J. Huetter, PRB 54, 1703 (1996)

 Real(R)+Recip(G) space primitive vectors, cartesian coordinates (Bohr,Bohr^-1):
 R(1)=  8.0502333  0.0000000  0.0000000  G(1)=  0.1242200  0.0000000  0.0000000
 R(2)=  0.0000000105.8246634  0.0000000  G(2)=  0.0000000  0.0094496  0.0000000
 R(3)=  0.0000000  0.0000000 56.6917840  G(3)=  0.0000000  0.0000000  0.0176392
 Unit cell volume ucvol=  4.8296481E+04 bohr^3
 Angles (23,13,12)=  9.00000000E+01  9.00000000E+01  9.00000000E+01 degrees

 getcut: wavevector=  0.0000  0.0000  0.0000  ngfft=  32 432 225
         ecut(hartree)=     19.000   => boxcut(ratio)=   2.01366

--- Pseudopotential description ------------------------------------------------
- pspini: atom type   1  psp file is ./6c.pspnc
- pspatm: opening atomic psp file    ./6c.pspnc
-  Troullier-Martins psp for element  C         Thu Oct 27 17:29:33 EDT 1994
-  6.00000   4.00000    940714                znucl, zion, pspdat
    1    1    1    1      2001   0.00000      pspcod,pspxc,lmax,lloc,mmax,r2well
    0  10.372  24.987    1   1.4850707        l,e99.0,e99.9,nproj,rcpsp
   0.00000000   0.00000000   0.00000000   0.00000000     rms, ekb1, ekb2, epsatm
    1  15.431  21.987    0   1.4850707        l,e99.0,e99.9,nproj,rcpsp
   0.00000000   0.00000000   0.00000000   0.00000000     rms, ekb1, ekb2, epsatm
    0.83985002509544    0.99012430797080    0.51184907750884   rchrg,fchrg,qchrg
 pspatm: epsatm=    0.92590353
         --- l  ekb(1:nproj) -->
             0    4.921466
 pspatm: atomic psp has been read  and splines computed

   2.90363347E+03                                ecore*ucvol(ha*bohr**3)
--------------------------------------------------------------------------------

_setup2: Arith. and geom. avg. npw (full set) are  191043.300  191043.081

================================================================================

     iter   Etot(hartree)      deltaE(h)  residm     vres2
 ETOT  1  -113.63472375382    -1.136E+02 1.112E-01 1.029E+07
 ETOT  2  -146.22486861668    -3.259E+01 1.309E-01 1.323E+06
 ETOT  3  -163.58619193385    -1.736E+01 3.186E-01 9.943E+04
 ETOT  4  -167.56483887140    -3.979E+00 1.003E-01 7.225E+04
 ETOT  5  -168.05471992960    -4.899E-01 7.322E-02 8.480E+04
 ETOT  6  -168.23146479185    -1.767E-01 3.010E-02 6.588E+04
 ETOT  7  -168.24606028577    -1.460E-02 4.513E-03 5.590E+04
 ETOT  8  -168.26653148873    -2.047E-02 1.707E-03 4.328E+04
 ETOT  9  -168.28529574842    -1.876E-02 1.094E-03 3.299E+04
 ETOT 10  -168.31550917298    -3.021E-02 1.617E-03 6.123E+02

 Cartesian components of stress tensor (hartree/bohr^3)
  sigma(1 1)=  3.84823412E-05  sigma(3 2)=  0.00000000E+00
  sigma(2 2)=  3.46924756E-05  sigma(3 1)=  0.00000000E+00
  sigma(3 3)=  3.84348817E-05  sigma(2 1)=  0.00000000E+00


 scprqt:  WARNING -
  nstep=   10 was not enough SCF cycles to converge;
  maximum energy difference=  3.021E-02 exceeds toldfe=  1.000E-06

 Integrated electronic density in atomic spheres:
 ------------------------------------------------
 Atom  Sphere_radius  Integrated_density
    1        2.00000          4.08712965
    2        2.00000          4.66855845
    3        2.00000          4.78149332
    4        2.00000          4.74660031
    5        2.00000          4.74031172
    6        2.00000          4.73212253
    7        2.00000          4.75815825
    8        2.00000          4.74975204
    9        2.00000          4.76746515
   10        2.00000          4.72832475
   11        2.00000          4.76433202
   12        2.00000          4.75419093
   13        2.00000          4.68115211
   14        2.00000          4.12026088
   15        2.00000          4.10770492
   16        2.00000          4.73438628
   17        2.00000          4.79835655
   18        2.00000          4.79436079
   19        2.00000          4.77117395
   20        2.00000          4.80505084
   21        2.00000          4.78342098
   22        2.00000          4.82057391
   23        2.00000          4.79394168
   24        2.00000          4.79902872
   25        2.00000          4.77806551
   26        2.00000          4.81532006
   27        2.00000          4.69912967
   28        2.00000          4.15533894
================================================================================

 ----iterations are completed or convergence reached----

 Mean square residual over all n,k,spin=   1.8100E-04; max=  1.6167E-03
 reduced coordinates (array xred) for   28 atoms
       0.000000000000      0.000000000000      0.000000000000
       0.500000000000      0.021960000000      0.000000000000
       0.000000000000      0.043919821429      0.000000000000
       0.500000000000      0.065879821429      0.000000000000
       0.000000000000      0.087839642857      0.000000000000
       0.500000000000      0.109799642857      0.000000000000
       0.000000000000      0.131759642857      0.000000000000
       0.500000000000      0.153719464286      0.000000000000
       0.000000000000      0.175679464286      0.000000000000
       0.500000000000      0.197639285714      0.000000000000
       0.000000000000      0.219599285714      0.000000000000
       0.500000000000      0.241559285714      0.000000000000
       0.000000000000      0.263519107143      0.000000000000
       0.500000000000      0.285479107143      0.000000000000
       0.333333333333      0.000000000000      0.000000000000
      -0.166666666667      0.021960000000      0.000000000000
       0.333333333333      0.043919821429      0.000000000000
      -0.166666666667      0.065879821429      0.000000000000
       0.333333333333      0.087839642857      0.000000000000
      -0.166666666667      0.109799642857      0.000000000000
       0.333333333333      0.131759642857      0.000000000000
      -0.166666666667      0.153719464286      0.000000000000
       0.333333333333      0.175679464286      0.000000000000
      -0.166666666667      0.197639285714      0.000000000000
       0.333333333333      0.219599285714      0.000000000000
      -0.166666666667      0.241559285714      0.000000000000
       0.333333333333      0.263519107143      0.000000000000
      -0.166666666667      0.285479107143      0.000000000000
 rms dE/dt=  6.3724E-01; max dE/dt=  1.8833E+00; dE/dt below (all hartree)
    1      -1.220531156798     -1.844859336548      0.000000000000
    2      -0.101700452005      1.748053919415      0.000000000000
    3      -0.113112895285      0.406429651964      0.000000000000
    4      -0.058309929881      0.036723556136      0.000000000000
    5      -0.012115692924     -0.158376565353      0.000000000000
    6      -0.004464060262      0.049382785514     -0.000000000000
    7      -0.016589665767      0.027593501120      0.000000000000
    8      -0.020640096436     -0.055837847998      0.000000000000
    9      -0.006324859225     -0.063575964855      0.000000000000
   10      -0.014056980623      0.151359446940      0.000000000000
   11      -0.068891378046      0.002696172717     -0.000000000000
   12      -0.121789125798     -0.401744427220      0.000000000000
   13      -0.100208214123     -1.897707489577      0.000000000000
   14      -1.230600079065      1.883339579614     -0.000000000000
   15       1.220531156798     -1.844859336548      0.000000000000
   16       0.101700452005      1.748053919415     -0.000000000000
   17       0.113112895285      0.406429651964      0.000000000000
   18       0.058309929881      0.036723556136      0.000000000000
   19       0.012115692924     -0.158376565353      0.000000000000
   20       0.004464060262      0.049382785514      0.000000000000
   21       0.016589665767      0.027593501120      0.000000000000
   22       0.020640096436     -0.055837847998      0.000000000000
   23       0.006324859225     -0.063575964855      0.000000000000
   24       0.014056980623      0.151359446940      0.000000000000
   25       0.068891378046      0.002696172717      0.000000000000
   26       0.121789125798     -0.401744427220      0.000000000000
   27       0.100208214123     -1.897707489577      0.000000000000
   28       1.230600079065      1.883339579614      0.000000000000

 cartesian coordinates (angstrom) at end:
    1      0.00000000000000     0.00000000000000     0.00000000000000
    2      2.13000000000000     1.22976000000000     0.00000000000000
    3      0.00000000000000     2.45951000000000     0.00000000000000
    4      2.13000000000000     3.68927000000000     0.00000000000000
    5      0.00000000000000     4.91902000000000     0.00000000000000
    6      2.13000000000000     6.14878000000000     0.00000000000000
    7      0.00000000000000     7.37854000000000     0.00000000000000
    8      2.13000000000000     8.60829000000000     0.00000000000000
    9      0.00000000000000     9.83805000000000     0.00000000000000
   10      2.13000000000000    11.06780000000000     0.00000000000000
   11      0.00000000000000    12.29756000000000     0.00000000000000
   12      2.13000000000000    13.52732000000000     0.00000000000000
   13      0.00000000000000    14.75707000000000     0.00000000000000
   14      2.13000000000000    15.98683000000000     0.00000000000000
   15      1.42000000000000     0.00000000000000     0.00000000000000
   16     -0.71000000000000     1.22976000000000     0.00000000000000
   17      1.42000000000000     2.45951000000000     0.00000000000000
   18     -0.71000000000000     3.68927000000000     0.00000000000000
   19      1.42000000000000     4.91902000000000     0.00000000000000
   20     -0.71000000000000     6.14878000000000     0.00000000000000
   21      1.42000000000000     7.37854000000000     0.00000000000000
   22     -0.71000000000000     8.60829000000000     0.00000000000000
   23      1.42000000000000     9.83805000000000     0.00000000000000
   24     -0.71000000000000    11.06780000000000     0.00000000000000
   25      1.42000000000000    12.29756000000000     0.00000000000000
   26     -0.71000000000000    13.52732000000000     0.00000000000000
   27      1.42000000000000    14.75707000000000     0.00000000000000
   28     -0.71000000000000    15.98683000000000     0.00000000000000

 cartesian forces (hartree/bohr) at end:
    1      0.15161438275855     0.01735452024223     0.00000000000000
    2      0.01263323035318    -0.01659704774878     0.00000000000000
    3      0.01405088408036    -0.00391924444831     0.00000000000000
    4      0.00724325960744    -0.00042567230922     0.00000000000000
    5      0.00150501139949     0.00141794443515    -0.00000000000000
    6      0.00055452557478    -0.00054529687467     0.00000000000000
    7      0.00206076831499    -0.00033939700515     0.00000000000000
    8      0.00256391282091     0.00044899528833    -0.00000000000000
    9      0.00078567402573     0.00052211734329     0.00000000000000
   10      0.00174615816131    -0.00150893482172     0.00000000000000
   11      0.00855768711978    -0.00010412738469     0.00000000000000
   12      0.01512864545226     0.00371767168164     0.00000000000000
   13      0.01244786456045     0.01785391377971    -0.00000000000000
   14      0.15286514430281    -0.01787544217782     0.00000000000000
   15     -0.15161438275855     0.01735452024223     0.00000000000000
   16     -0.01263323035318    -0.01659704774878     0.00000000000000
   17     -0.01405088408036    -0.00391924444831     0.00000000000000
   18     -0.00724325960744    -0.00042567230922     0.00000000000000
   19     -0.00150501139949     0.00141794443515     0.00000000000000
   20     -0.00055452557478    -0.00054529687467     0.00000000000000
   21     -0.00206076831499    -0.00033939700515     0.00000000000000
   22     -0.00256391282091     0.00044899528833     0.00000000000000
   23     -0.00078567402573     0.00052211734329    -0.00000000000000
   24     -0.00174615816131    -0.00150893482172     0.00000000000000
   25     -0.00855768711978    -0.00010412738469     0.00000000000000
   26     -0.01512864545226     0.00371767168164     0.00000000000000
   27     -0.01244786456045     0.01785391377971     0.00000000000000
   28     -0.15286514430281    -0.01787544217782     0.00000000000000
 frms,max,avg= 3.3977501E-02 1.5286514E-01   0.000E+00  7.865E-05  0.000E+00 h/b

 cartesian forces (eV/Angstrom) at end:
    1      7.79632437106029     0.89240523656664     0.00000000000000
    2      0.64962676954300    -0.85345443814225     0.00000000000000
    3      0.72252544908670    -0.20153563568661     0.00000000000000
    4      0.37246335325166    -0.02188894838373     0.00000000000000
    5      0.07739079128979     0.07291362834755    -0.00000000000000
    6      0.02851484914822    -0.02804029034763     0.00000000000000
    7      0.10596895851775    -0.01745249424617     0.00000000000000
    8      0.13184168709638     0.02308826408953    -0.00000000000000
    9      0.04040097939952     0.02684835102057     0.00000000000000
   10      0.08979105531448    -0.07759254175552     0.00000000000000
   11      0.44005392785277    -0.00535444495576     0.00000000000000
   12      0.77794616245905     0.19117034814146     0.00000000000000
   13      0.64009487803585     0.91808508260872    -0.00000000000000
   14      7.86064111022787    -0.91919211725681     0.00000000000000
   15     -7.79632437106029     0.89240523656664     0.00000000000000
   16     -0.64962676954300    -0.85345443814225     0.00000000000000
   17     -0.72252544908670    -0.20153563568661     0.00000000000000
   18     -0.37246335325166    -0.02188894838373     0.00000000000000
   19     -0.07739079128979     0.07291362834755     0.00000000000000
   20     -0.02851484914822    -0.02804029034763     0.00000000000000
   21     -0.10596895851775    -0.01745249424617     0.00000000000000
   22     -0.13184168709638     0.02308826408953     0.00000000000000
   23     -0.04040097939952     0.02684835102057    -0.00000000000000
   24     -0.08979105531448    -0.07759254175552     0.00000000000000
   25     -0.44005392785277    -0.00535444495576     0.00000000000000
   26     -0.77794616245905     0.19117034814146     0.00000000000000
   27     -0.64009487803585     0.91808508260872     0.00000000000000
   28     -7.86064111022787    -0.91919211725681     0.00000000000000
 frms,max,avg= 1.7471932E+00 7.8606411E+00   0.000E+00  4.044E-03  0.000E+00 e/A
 length scales=  8.050233326093105.824663441596 56.691783986569 bohr
              =  4.260000000000 56.000000000000 30.000000000000 angstroms
 prteigrs : about to open file agnr_4o_DS1_EIG
 Fermi (or HOMO) energy (hartree) =  -0.14765   Average Vxc (hartree)=  -0.02232
 Eigenvalues (hartree) for nkpt=   6  k points:
 kpt#   1, nband= 60, wtk=  0.10000, kpt=  0.0000  0.0000  0.0000 (reduced coord)
  -0.85806   -0.84953   -0.83399   -0.81015   -0.78192   -0.74942   -0.71199   -0.67076
  -0.66322   -0.65657   -0.64338   -0.62949   -0.62881   -0.62225   -0.62192   -0.61012
  -0.59783   -0.59751   -0.59537   -0.56837   -0.53399   -0.52510   -0.51990   -0.49479
  -0.49272   -0.48857   -0.45301   -0.45159   -0.44847   -0.42871   -0.41795   -0.41585
  -0.40587   -0.40435   -0.40019   -0.38460   -0.37422   -0.35916   -0.35823   -0.34336
  -0.32657   -0.31218   -0.30847   -0.29431   -0.27282   -0.26936   -0.26762   -0.23486
  -0.23236   -0.22949   -0.22764   -0.22175   -0.20361   -0.18600   -0.17655   -0.14765
  -0.14428   -0.14425   -0.13654   -0.11756
 prteigrs : prtvol=0 or 1, do not print more k-points.


--------------------------------------------------------------------------------
 Components of total free energy (in Hartree) :

    Kinetic energy  =  1.12989336462333E+02
    Hartree energy  =  1.71746178605612E+03
    XC energy       = -5.91371825542598E+01
    Ewald energy    =  1.60013806305516E+03
    PspCore energy  =  6.01210152825624E-02
    Loc. psp. energy= -3.55896506006234E+03
    NL   psp  energy=  1.91374268547247E+01
    >>>>>>>>> Etotal= -1.68315509172978E+02

 Other information on the energy :
    Total energy(eV)= -4.58009792969726E+03 ; Band energy (Ha)=  -5.2981996911E+01
--------------------------------------------------------------------------------

 Cartesian components of stress tensor (hartree/bohr^3)
  sigma(1 1)=  3.84823412E-05  sigma(3 2)=  0.00000000E+00
  sigma(2 2)=  3.46924756E-05  sigma(3 1)=  0.00000000E+00
  sigma(3 3)=  3.84348817E-05  sigma(2 1)=  0.00000000E+00

-Cartesian components of stress tensor (GPa)         [Pressure= -1.0946E+00 GPa]
- sigma(1 1)=  1.13218938E+00  sigma(3 2)=  0.00000000E+00
- sigma(2 2)=  1.02068770E+00  sigma(3 1)=  0.00000000E+00
- sigma(3 3)=  1.13079307E+00  sigma(2 1)=  0.00000000E+00

================================================================================
== DATASET  2 ==================================================================
-   nproc =    1

 mkfilename : getden/=0, take file _DEN from output of DATASET   1.

 Exchange-correlation functional for the present dataset will be:
  LDA: new Teter (4/93) with spin-polarized option - ixc=1
 Citation for XC functional:
  S. Goedecker, M. Teter, J. Huetter, PRB 54, 1703 (1996)

 Real(R)+Recip(G) space primitive vectors, cartesian coordinates (Bohr,Bohr^-1):
 R(1)=  8.0502333  0.0000000  0.0000000  G(1)=  0.1242200  0.0000000  0.0000000
 R(2)=  0.0000000105.8246634  0.0000000  G(2)=  0.0000000  0.0094496  0.0000000
 R(3)=  0.0000000  0.0000000 56.6917840  G(3)=  0.0000000  0.0000000  0.0176392
 Unit cell volume ucvol=  4.8296481E+04 bohr^3
 Angles (23,13,12)=  9.00000000E+01  9.00000000E+01  9.00000000E+01 degrees

 getcut: wavevector=  0.0000  0.0000  0.0000  ngfft=  32 432 225
         ecut(hartree)=     19.000   => boxcut(ratio)=   2.01366
--------------------------------------------------------------------------------

_setup2: Arith. and geom. avg. npw (full set) are  191051.063  191050.872

================================================================================

     iter   Etot(hartree)      deltaE(h)  residm     vres2
 ETOT  1  -136.46780670737    -1.365E+02 9.561E-02 3.663E+06
 ETOT  2  -155.46380140210    -1.900E+01 1.523E-01 9.761E+05
 ETOT  3  -166.90782613459    -1.144E+01 1.632E-01 1.087E+05
 ETOT  4  -168.06743632379    -1.160E+00 7.521E-02 3.399E+04
 ETOT  5  -168.21138844323    -1.440E-01 3.698E-02 3.321E+04
 ETOT  6  -168.23934992431    -2.796E-02 4.698E-03 2.889E+04
 ETOT  7  -168.25194491610    -1.259E-02 1.656E-03 2.451E+04
 ETOT  8  -168.27751739330    -2.557E-02 2.029E-03 1.831E+04
 ETOT  9  -168.29405493149    -1.654E-02 1.743E-03 1.327E+04
 ETOT 10  -168.32170185404    -2.765E-02 5.864E-03 2.945E+02

 Cartesian components of stress tensor (hartree/bohr^3)
  sigma(1 1)=  4.08667239E-05  sigma(3 2)=  0.00000000E+00
  sigma(2 2)=  3.40755526E-05  sigma(3 1)=  0.00000000E+00
  sigma(3 3)=  2.42542922E-05  sigma(2 1)=  0.00000000E+00


 scprqt:  WARNING -
  nstep=   10 was not enough SCF cycles to converge;
  maximum energy difference=  2.765E-02 exceeds toldfe=  1.000E-06

 Integrated electronic density in atomic spheres:
 ------------------------------------------------
 Atom  Sphere_radius  Integrated_density
    1        2.00000          4.11213440
    2        2.00000          4.72739743
    3        2.00000          4.75970045
    4        2.00000          4.75596371
    5        2.00000          4.76064535
    6        2.00000          4.73602405
    7        2.00000          4.75735624
    8        2.00000          4.73980644
    9        2.00000          4.76128348
   10        2.00000          4.73704123
   11        2.00000          4.77658973
   12        2.00000          4.76200418
   13        2.00000          4.71130292
   14        2.00000          4.14629491
   15        2.00000          4.13280977
   16        2.00000          4.79373330
   17        2.00000          4.77627568
   18        2.00000          4.80373918
   19        2.00000          4.79162171
   20        2.00000          4.80903644
   21        2.00000          4.78262769
   22        2.00000          4.81058566
   23        2.00000          4.78787747
   24        2.00000          4.80786254
   25        2.00000          4.79041728
   26        2.00000          4.82329489
   27        2.00000          4.72936799
   28        2.00000          4.18155467
================================================================================

 ----iterations are completed or convergence reached----

 Mean square residual over all n,k,spin=   2.2991E-04; max=  5.8642E-03
 reduced coordinates (array xred) for   28 atoms
       0.000000000000      0.000000000000      0.000000000000
       0.500000000000      0.021960000000      0.000000000000
       0.000000000000      0.043919821429      0.000000000000
       0.500000000000      0.065879821429      0.000000000000
       0.000000000000      0.087839642857      0.000000000000
       0.500000000000      0.109799642857      0.000000000000
       0.000000000000      0.131759642857      0.000000000000
       0.500000000000      0.153719464286      0.000000000000
       0.000000000000      0.175679464286      0.000000000000
       0.500000000000      0.197639285714      0.000000000000
       0.000000000000      0.219599285714      0.000000000000
       0.500000000000      0.241559285714      0.000000000000
       0.000000000000      0.263519107143      0.000000000000
       0.500000000000      0.285479107143      0.000000000000
       0.333333333333      0.000000000000      0.000000000000
      -0.166666666667      0.021960000000      0.000000000000
       0.333333333333      0.043919821429      0.000000000000
      -0.166666666667      0.065879821429      0.000000000000
       0.333333333333      0.087839642857      0.000000000000
      -0.166666666667      0.109799642857      0.000000000000
       0.333333333333      0.131759642857      0.000000000000
      -0.166666666667      0.153719464286      0.000000000000
       0.333333333333      0.175679464286      0.000000000000
      -0.166666666667      0.197639285714      0.000000000000
       0.333333333333      0.219599285714      0.000000000000
      -0.166666666667      0.241559285714      0.000000000000
       0.333333333333      0.263519107143      0.000000000000
      -0.166666666667      0.285479107143      0.000000000000
 rms dE/dt=  8.5735E-01; max dE/dt=  2.5930E+00; dE/dt below (all hartree)
    1      -1.260420591349     -2.953893461316      0.000000000000
    2      -0.103651951083      2.538938751352      0.000000000000
    3      -0.108296477113      0.574918233006      0.000000000000
    4      -0.065359553621     -0.112377605566      0.000000000000
    5      -0.010599538303     -0.063220339414      0.000000000000
    6      -0.003489228093      0.182874303722      0.000000000000
    7      -0.023985238689      0.045393077539      0.000000000000
    8      -0.025540474176     -0.034825020479      0.000000000000
    9      -0.008955574245     -0.139496045809      0.000000000000
   10      -0.011918117664     -0.000693434578      0.000000000000
   11      -0.061098653907     -0.027999672340      0.000000000000
   12      -0.117240850543     -0.466375874309      0.000000000000
   13      -0.113753026724     -2.252478156141      0.000000000000
   14      -1.278275712485      2.592996557035      0.000000000000
   15       1.260420591349     -2.953893461316      0.000000000000
   16       0.103651951083      2.538938751352      0.000000000000
   17       0.108296477113      0.574918233006      0.000000000000
   18       0.065359553621     -0.112377605566      0.000000000000
   19       0.010599538303     -0.063220339414      0.000000000000
   20       0.003489228093      0.182874303722      0.000000000000
   21       0.023985238689      0.045393077539      0.000000000000
   22       0.025540474176     -0.034825020479      0.000000000000
   23       0.008955574245     -0.139496045809      0.000000000000
   24       0.011918117664     -0.000693434578      0.000000000000
   25       0.061098653907     -0.027999672340      0.000000000000
   26       0.117240850543     -0.466375874309      0.000000000000
   27       0.113753026724     -2.252478156141      0.000000000000
   28       1.278275712485      2.592996557035      0.000000000000

 cartesian coordinates (angstrom) at end:
    1      0.00000000000000     0.00000000000000     0.00000000000000
    2      2.13000000000000     1.22976000000000     0.00000000000000
    3      0.00000000000000     2.45951000000000     0.00000000000000
    4      2.13000000000000     3.68927000000000     0.00000000000000
    5      0.00000000000000     4.91902000000000     0.00000000000000
    6      2.13000000000000     6.14878000000000     0.00000000000000
    7      0.00000000000000     7.37854000000000     0.00000000000000
    8      2.13000000000000     8.60829000000000     0.00000000000000
    9      0.00000000000000     9.83805000000000     0.00000000000000
   10      2.13000000000000    11.06780000000000     0.00000000000000
   11      0.00000000000000    12.29756000000000     0.00000000000000
   12      2.13000000000000    13.52732000000000     0.00000000000000
   13      0.00000000000000    14.75707000000000     0.00000000000000
   14      2.13000000000000    15.98683000000000     0.00000000000000
   15      1.42000000000000     0.00000000000000     0.00000000000000
   16     -0.71000000000000     1.22976000000000     0.00000000000000
   17      1.42000000000000     2.45951000000000     0.00000000000000
   18     -0.71000000000000     3.68927000000000     0.00000000000000
   19      1.42000000000000     4.91902000000000     0.00000000000000
   20     -0.71000000000000     6.14878000000000     0.00000000000000
   21      1.42000000000000     7.37854000000000     0.00000000000000
   22     -0.71000000000000     8.60829000000000     0.00000000000000
   23      1.42000000000000     9.83805000000000     0.00000000000000
   24     -0.71000000000000    11.06780000000000     0.00000000000000
   25      1.42000000000000    12.29756000000000     0.00000000000000
   26     -0.71000000000000    13.52732000000000     0.00000000000000
   27      1.42000000000000    14.75707000000000     0.00000000000000
   28     -0.71000000000000    15.98683000000000     0.00000000000000

 cartesian forces (hartree/bohr) at end:
    1      0.15656944839895     0.02783463327113    -0.00000000000000
    2      0.01287564557257    -0.02407039561375    -0.00000000000000
    3      0.01345258860529    -0.00551120105103    -0.00000000000000
    4      0.00811896388261     0.00098346490131    -0.00000000000000
    5      0.00131667466940     0.00051894874266    -0.00000000000000
    6      0.00043343192079    -0.00180654547705    -0.00000000000000
    7      0.00297944639835    -0.00050740384303    -0.00000000000000
    8      0.00317263775363     0.00025062453532    -0.00000000000000
    9      0.00111246145074     0.00123972312469    -0.00000000000000
   10      0.00148046860022    -0.00007190506025    -0.00000000000000
   11      0.00758967491152     0.00018612777325    -0.00000000000000
   12      0.01456365869083     0.00432860446736    -0.00000000000000
   13      0.01413040120902     0.02120654410587    -0.00000000000000
   14      0.15878741158245    -0.02458121987649    -0.00000000000000
   15     -0.15656944839895     0.02783463327113    -0.00000000000000
   16     -0.01287564557257    -0.02407039561375    -0.00000000000000
   17     -0.01345258860529    -0.00551120105103    -0.00000000000000
   18     -0.00811896388261     0.00098346490131    -0.00000000000000
   19     -0.00131667466940     0.00051894874266    -0.00000000000000
   20     -0.00043343192079    -0.00180654547705    -0.00000000000000
   21     -0.00297944639835    -0.00050740384303    -0.00000000000000
   22     -0.00317263775363     0.00025062453532    -0.00000000000000
   23     -0.00111246145074     0.00123972312469    -0.00000000000000
   24     -0.00148046860022    -0.00007190506025    -0.00000000000000
   25     -0.00758967491152     0.00018612777325    -0.00000000000000
   26     -0.01456365869083     0.00432860446736    -0.00000000000000
   27     -0.01413040120902     0.02120654410587    -0.00000000000000
   28     -0.15878741158245    -0.02458121987649    -0.00000000000000
 frms,max,avg= 3.5555919E-02 1.5878741E-01   0.000E+00  7.846E-05  0.000E+00 h/b

 cartesian forces (eV/Angstrom) at end:
    1      8.05112406954252     1.43131427100063    -0.00000000000000
    2      0.66209226027349    -1.23774940431196    -0.00000000000000
    3      0.69175986136043    -0.28339732871111    -0.00000000000000
    4      0.41749387382677     0.05057179430227    -0.00000000000000
    5      0.06770612805330     0.02668541503853    -0.00000000000000
    6      0.02228796362036    -0.09289629568025    -0.00000000000000
    7      0.15320928097373    -0.02609175248016    -0.00000000000000
    8      0.16314357905339     0.01288763069278    -0.00000000000000
    9      0.05720506301902     0.06374912085848    -0.00000000000000
   10      0.07612874991476    -0.00369750655186    -0.00000000000000
   11      0.39027674290864     0.00957107411814    -0.00000000000000
   12      0.74889337750995     0.22258577245488    -0.00000000000000
   13      0.72661438390148     1.09048425110066    -0.00000000000000
   14      8.16517631252258    -1.26401704183102    -0.00000000000000
   15     -8.05112406954252     1.43131427100063    -0.00000000000000
   16     -0.66209226027349    -1.23774940431196    -0.00000000000000
   17     -0.69175986136043    -0.28339732871111    -0.00000000000000
   18     -0.41749387382677     0.05057179430227    -0.00000000000000
   19     -0.06770612805330     0.02668541503853    -0.00000000000000
   20     -0.02228796362036    -0.09289629568025    -0.00000000000000
   21     -0.15320928097373    -0.02609175248016    -0.00000000000000
   22     -0.16314357905339     0.01288763069278    -0.00000000000000
   23     -0.05720506301902     0.06374912085848    -0.00000000000000
   24     -0.07612874991476    -0.00369750655186    -0.00000000000000
   25     -0.39027674290864     0.00957107411814    -0.00000000000000
   26     -0.74889337750995     0.22258577245488    -0.00000000000000
   27     -0.72661438390148     1.09048425110066    -0.00000000000000
   28     -8.16517631252258    -1.26401704183102    -0.00000000000000
 frms,max,avg= 1.8283587E+00 8.1651763E+00   0.000E+00  4.034E-03  0.000E+00 e/A
 length scales=  8.050233326093105.824663441596 56.691783986569 bohr
              =  4.260000000000 56.000000000000 30.000000000000 angstroms
 prteigrs : about to open file agnr_4o_DS2_EIG
 Fermi (or HOMO) energy (hartree) =  -0.16877   Average Vxc (hartree)=  -0.02207
 Eigenvalues (hartree) for nkpt=   9  k points:
 kpt#   1, nband= 60, wtk=  0.06250, kpt=  0.0000  0.0000  0.0000 (reduced coord)
  -0.87853   -0.87282   -0.85555   -0.83337   -0.80563   -0.77264   -0.73484   -0.69350
  -0.68408   -0.67982   -0.66440   -0.65223   -0.65061   -0.64612   -0.64523   -0.63305
  -0.62136   -0.62087   -0.62013   -0.59138   -0.55682   -0.54681   -0.54165   -0.51766
  -0.51564   -0.51251   -0.47641   -0.47465   -0.47044   -0.44651   -0.44037   -0.43873
  -0.42873   -0.42526   -0.41975   -0.40846   -0.39493   -0.38213   -0.38133   -0.36440
  -0.34906   -0.33467   -0.32880   -0.31682   -0.29259   -0.28919   -0.28752   -0.26014
  -0.25260   -0.25086   -0.24741   -0.24318   -0.22361   -0.20626   -0.19782   -0.16877
  -0.16590   -0.15302   -0.13764   -0.12882
 prteigrs : prtvol=0 or 1, do not print more k-points.


--------------------------------------------------------------------------------
 Components of total free energy (in Hartree) :

    Kinetic energy  =  1.13528643707787E+02
    Hartree energy  =  1.71815599108715E+03
    XC energy       = -5.92549416708974E+01
    Ewald energy    =  1.60013806305516E+03
    PspCore energy  =  6.01210152825624E-02
    Loc. psp. energy= -3.56012762739655E+03
    NL   psp  energy=  1.91780483480308E+01
    >>>>>>>>> Etotal= -1.68321701854036E+02

 Other information on the energy :
    Total energy(eV)= -4.58026644111864E+03 ; Band energy (Ha)=  -5.5457451312E+01
--------------------------------------------------------------------------------

 Cartesian components of stress tensor (hartree/bohr^3)
  sigma(1 1)=  4.08667239E-05  sigma(3 2)=  0.00000000E+00
  sigma(2 2)=  3.40755526E-05  sigma(3 1)=  0.00000000E+00
  sigma(3 3)=  2.42542922E-05  sigma(2 1)=  0.00000000E+00

-Cartesian components of stress tensor (GPa)         [Pressure= -9.7282E-01 GPa]
- sigma(1 1)=  1.20234033E+00  sigma(3 2)=  0.00000000E+00
- sigma(2 2)=  1.00253720E+00  sigma(3 1)=  0.00000000E+00
- sigma(3 3)=  7.13585794E-01  sigma(2 1)=  0.00000000E+00

================================================================================
== DATASET  3 ==================================================================
-   nproc =    1

 mkfilename : getden/=0, take file _DEN from output of DATASET   2.

 Exchange-correlation functional for the present dataset will be:
  LDA: new Teter (4/93) with spin-polarized option - ixc=1
 Citation for XC functional:
  S. Goedecker, M. Teter, J. Huetter, PRB 54, 1703 (1996)

 Real(R)+Recip(G) space primitive vectors, cartesian coordinates (Bohr,Bohr^-1):
 R(1)=  8.0502333  0.0000000  0.0000000  G(1)=  0.1242200  0.0000000  0.0000000
 R(2)=  0.0000000105.8246634  0.0000000  G(2)=  0.0000000  0.0094496  0.0000000
 R(3)=  0.0000000  0.0000000 56.6917840  G(3)=  0.0000000  0.0000000  0.0176392
 Unit cell volume ucvol=  4.8296481E+04 bohr^3
 Angles (23,13,12)=  9.00000000E+01  9.00000000E+01  9.00000000E+01 degrees

 getcut: wavevector=  0.0000  0.0000  0.0000  ngfft=  32 432 225
         ecut(hartree)=     19.000   => boxcut(ratio)=   2.01366
--------------------------------------------------------------------------------

_setup2: Arith. and geom. avg. npw (full set) are  191047.350  191047.146

================================================================================

     iter   Etot(hartree)      deltaE(h)  residm     vres2
 ETOT  1  -136.44790456113    -1.364E+02 9.265E-02 3.630E+06
 ETOT  2  -160.20029231433    -2.375E+01 2.245E-01 7.238E+05
 ETOT  3  -166.08649728093    -5.886E+00 1.405E-01 2.495E+05
 ETOT  4  -168.04432780347    -1.958E+00 7.392E-02 3.937E+04
 ETOT  5  -168.18841204288    -1.441E-01 4.956E-02 3.816E+04
 ETOT  6  -168.25069802711    -6.229E-02 5.643E-03 2.959E+04
 ETOT  7  -168.26218785157    -1.149E-02 3.655E-03 2.514E+04
 ETOT  8  -168.28406434673    -2.188E-02 1.327E-03 1.893E+04
 ETOT  9  -168.29843170517    -1.437E-02 1.563E-03 1.353E+04
 ETOT 10  -168.31597415649    -1.754E-02 3.569E-03 9.305E+02

 Cartesian components of stress tensor (hartree/bohr^3)
  sigma(1 1)=  3.96630153E-05  sigma(3 2)=  0.00000000E+00
  sigma(2 2)=  3.48186192E-05  sigma(3 1)=  0.00000000E+00
  sigma(3 3)=  2.32375418E-05  sigma(2 1)=  0.00000000E+00


 scprqt:  WARNING -
  nstep=   10 was not enough SCF cycles to converge;
  maximum energy difference=  1.754E-02 exceeds toldfe=  1.000E-06

 Integrated electronic density in atomic spheres:
 ------------------------------------------------
 Atom  Sphere_radius  Integrated_density
    1        2.00000          4.10645889
    2        2.00000          4.70921485
    3        2.00000          4.76747826
    4        2.00000          4.75604107
    5        2.00000          4.75543073
    6        2.00000          4.73897278
    7        2.00000          4.75758391
    8        2.00000          4.74168877
    9        2.00000          4.76480744
   10        2.00000          4.72951215
   11        2.00000          4.76567824
   12        2.00000          4.76671816
   13        2.00000          4.71173010
   14        2.00000          4.18291754
   15        2.00000          4.12716687
   16        2.00000          4.77539416
   17        2.00000          4.78412438
   18        2.00000          4.80382544
   19        2.00000          4.78640149
   20        2.00000          4.81200909
   21        2.00000          4.78288682
   22        2.00000          4.81249317
   23        2.00000          4.79137705
   24        2.00000          4.80026975
   25        2.00000          4.77944652
   26        2.00000          4.82804043
   27        2.00000          4.72967399
   28        2.00000          4.21830926
================================================================================

 ----iterations are completed or convergence reached----

 Mean square residual over all n,k,spin=   1.4978E-04; max=  3.5693E-03
 reduced coordinates (array xred) for   28 atoms
       0.000000000000      0.000000000000      0.000000000000
       0.500000000000      0.021960000000      0.000000000000
       0.000000000000      0.043919821429      0.000000000000
       0.500000000000      0.065879821429      0.000000000000
       0.000000000000      0.087839642857      0.000000000000
       0.500000000000      0.109799642857      0.000000000000
       0.000000000000      0.131759642857      0.000000000000
       0.500000000000      0.153719464286      0.000000000000
       0.000000000000      0.175679464286      0.000000000000
       0.500000000000      0.197639285714      0.000000000000
       0.000000000000      0.219599285714      0.000000000000
       0.500000000000      0.241559285714      0.000000000000
       0.000000000000      0.263519107143      0.000000000000
       0.500000000000      0.285479107143      0.000000000000
       0.333333333333      0.000000000000      0.000000000000
      -0.166666666667      0.021960000000      0.000000000000
       0.333333333333      0.043919821429      0.000000000000
      -0.166666666667      0.065879821429      0.000000000000
       0.333333333333      0.087839642857      0.000000000000
      -0.166666666667      0.109799642857      0.000000000000
       0.333333333333      0.131759642857      0.000000000000
      -0.166666666667      0.153719464286      0.000000000000
       0.333333333333      0.175679464286      0.000000000000
      -0.166666666667      0.197639285714      0.000000000000
       0.333333333333      0.219599285714      0.000000000000
      -0.166666666667      0.241559285714      0.000000000000
       0.333333333333      0.263519107143      0.000000000000
      -0.166666666667      0.285479107143      0.000000000000
 rms dE/dt=  8.6548E-01; max dE/dt=  2.6553E+00; dE/dt below (all hartree)
    1      -1.262575502260     -2.940239585510      0.000000000000
    2      -0.091939056213      2.539159142370      0.000000000000
    3      -0.111333595525      0.465121646305      0.000000000000
    4      -0.043253830504     -0.183005646313     -0.000000000000
    5       0.007168430738      0.038406890880      0.000000000000
    6      -0.007869377548      0.122017891775      0.000000000000
    7      -0.003628101390     -0.061288112138      0.000000000000
    8      -0.009827280992      0.067631523788      0.000000000000
    9      -0.014300316520     -0.156853411410      0.000000000000
   10       0.002679106969     -0.067459919884      0.000000000000
   11      -0.051474681342      0.040245263500      0.000000000000
   12      -0.116638739269     -0.594856633779      0.000000000000
   13      -0.058894254404     -2.364213941690      0.000000000000
   14      -1.196631479325      2.655270862294      0.000000000000
   15       1.262575502260     -2.940239585510      0.000000000000
   16       0.091939056213      2.539159142370      0.000000000000
   17       0.111333595525      0.465121646305      0.000000000000
   18       0.043253830504     -0.183005646313      0.000000000000
   19      -0.007168430738      0.038406890880      0.000000000000
   20       0.007869377548      0.122017891775      0.000000000000
   21       0.003628101390     -0.061288112138      0.000000000000
   22       0.009827280992      0.067631523788      0.000000000000
   23       0.014300316520     -0.156853411410      0.000000000000
   24      -0.002679106969     -0.067459919884      0.000000000000
   25       0.051474681342      0.040245263500     -0.000000000000
   26       0.116638739269     -0.594856633779      0.000000000000
   27       0.058894254404     -2.364213941690      0.000000000000
   28       1.196631479325      2.655270862294      0.000000000000

 cartesian coordinates (angstrom) at end:
    1      0.00000000000000     0.00000000000000     0.00000000000000
    2      2.13000000000000     1.22976000000000     0.00000000000000
    3      0.00000000000000     2.45951000000000     0.00000000000000
    4      2.13000000000000     3.68927000000000     0.00000000000000
    5      0.00000000000000     4.91902000000000     0.00000000000000
    6      2.13000000000000     6.14878000000000     0.00000000000000
    7      0.00000000000000     7.37854000000000     0.00000000000000
    8      2.13000000000000     8.60829000000000     0.00000000000000
    9      0.00000000000000     9.83805000000000     0.00000000000000
   10      2.13000000000000    11.06780000000000     0.00000000000000
   11      0.00000000000000    12.29756000000000     0.00000000000000
   12      2.13000000000000    13.52732000000000     0.00000000000000
   13      0.00000000000000    14.75707000000000     0.00000000000000
   14      2.13000000000000    15.98683000000000     0.00000000000000
   15      1.42000000000000     0.00000000000000     0.00000000000000
   16     -0.71000000000000     1.22976000000000     0.00000000000000
   17      1.42000000000000     2.45951000000000     0.00000000000000
   18     -0.71000000000000     3.68927000000000     0.00000000000000
   19      1.42000000000000     4.91902000000000     0.00000000000000
   20     -0.71000000000000     6.14878000000000     0.00000000000000
   21      1.42000000000000     7.37854000000000     0.00000000000000
   22     -0.71000000000000     8.60829000000000     0.00000000000000
   23      1.42000000000000     9.83805000000000     0.00000000000000
   24     -0.71000000000000    11.06780000000000     0.00000000000000
   25      1.42000000000000    12.29756000000000     0.00000000000000
   26     -0.71000000000000    13.52732000000000     0.00000000000000
   27      1.42000000000000    14.75707000000000     0.00000000000000
   28     -0.71000000000000    15.98683000000000     0.00000000000000

 cartesian forces (hartree/bohr) at end:
    1      0.15683713143664     0.02748703700937    -0.00000000000000
    2      0.01142066974820    -0.02429105091154    -0.00000000000000
    3      0.01382985946060    -0.00469224068513    -0.00000000000000
    4      0.00537299091243     0.00143229844913     0.00000000000000
    5     -0.00089046248076    -0.00065995991478    -0.00000000000000
    6      0.00097753409483    -0.00145004984444    -0.00000000000000
    7      0.00045068276198     0.00028211728892    -0.00000000000000
    8      0.00122074486470    -0.00093612080164    -0.00000000000000
    9      0.00177638534693     0.00118517047297    -0.00000000000000
   10     -0.00033279867305     0.00034043836027    -0.00000000000000
   11      0.00639418502006    -0.00067733178784    -0.00000000000000
   12      0.01448886442721     0.00532412266167    -0.00000000000000
   13      0.00731584440082     0.02204382911164    -0.00000000000000
   14      0.14864556477471    -0.02538825940858    -0.00000000000000
   15     -0.15683713143664     0.02748703700937    -0.00000000000000
   16     -0.01142066974820    -0.02429105091154    -0.00000000000000
   17     -0.01382985946060    -0.00469224068513    -0.00000000000000
   18     -0.00537299091243     0.00143229844913    -0.00000000000000
   19      0.00089046248076    -0.00065995991478    -0.00000000000000
   20     -0.00097753409483    -0.00145004984444    -0.00000000000000
   21     -0.00045068276198     0.00028211728892    -0.00000000000000
   22     -0.00122074486470    -0.00093612080164    -0.00000000000000
   23     -0.00177638534693     0.00118517047297    -0.00000000000000
   24      0.00033279867305     0.00034043836027    -0.00000000000000
   25     -0.00639418502006    -0.00067733178784     0.00000000000000
   26     -0.01448886442721     0.00532412266167    -0.00000000000000
   27     -0.00731584440082     0.02204382911164    -0.00000000000000
   28     -0.14864556477471    -0.02538825940858    -0.00000000000000
 frms,max,avg= 3.4464949E-02 1.5683713E-01   0.000E+00  2.970E-04  0.000E+00 h/b

 cartesian forces (eV/Angstrom) at end:
    1      8.06488888362209     1.41344015406275    -0.00000000000000
    2      0.58727440148956    -1.24909595497882    -0.00000000000000
    3      0.71115990712260    -0.24128469702409    -0.00000000000000
    4      0.27629027823039     0.07365174136111     0.00000000000000
    5     -0.04578941795606    -0.03393650044237    -0.00000000000000
    6      0.05026681999683    -0.07456455473268    -0.00000000000000
    7      0.02317503746622     0.01450705305849    -0.00000000000000
    8      0.06277321957439    -0.04813726301764    -0.00000000000000
    9      0.09134539956349     0.06094391095463    -0.00000000000000
   10     -0.01711319439582     0.01750604287461    -0.00000000000000
   11      0.32880218616432    -0.03482979799625    -0.00000000000000
   12      0.74504730215938     0.27377737195136    -0.00000000000000
   13      0.37619581308361     1.13353917357733    -0.00000000000000
   14      7.64366162508884    -1.30551667964842    -0.00000000000000
   15     -8.06488888362209     1.41344015406275    -0.00000000000000
   16     -0.58727440148956    -1.24909595497882    -0.00000000000000
   17     -0.71115990712260    -0.24128469702409    -0.00000000000000
   18     -0.27629027823039     0.07365174136111    -0.00000000000000
   19      0.04578941795606    -0.03393650044237    -0.00000000000000
   20     -0.05026681999683    -0.07456455473268    -0.00000000000000
   21     -0.02317503746622     0.01450705305849    -0.00000000000000
   22     -0.06277321957439    -0.04813726301764    -0.00000000000000
   23     -0.09134539956349     0.06094391095463    -0.00000000000000
   24      0.01711319439582     0.01750604287461    -0.00000000000000
   25     -0.32880218616432    -0.03482979799625     0.00000000000000
   26     -0.74504730215938     0.27377737195136    -0.00000000000000
   27     -0.37619581308361     1.13353917357733    -0.00000000000000
   28     -7.64366162508884    -1.30551667964842    -0.00000000000000
 frms,max,avg= 1.7722588E+00 8.0648889E+00   0.000E+00  1.527E-02  0.000E+00 e/A
 length scales=  8.050233326093105.824663441596 56.691783986569 bohr
              =  4.260000000000 56.000000000000 30.000000000000 angstroms
 prteigrs : about to open file agnr_4o_DS3_EIG
 Fermi (or HOMO) energy (hartree) =  -0.16986   Average Vxc (hartree)=  -0.02206
 Eigenvalues (hartree) for nkpt=  11  k points:
 kpt#   1, nband= 60, wtk=  0.05000, kpt=  0.0000  0.0000  0.0000 (reduced coord)
  -0.87920   -0.87294   -0.85640   -0.83363   -0.80588   -0.77315   -0.73547   -0.69417
  -0.68458   -0.67996   -0.66537   -0.65272   -0.65134   -0.64633   -0.64552   -0.63368
  -0.62213   -0.62116   -0.62011   -0.59187   -0.55735   -0.54748   -0.54244   -0.51816
  -0.51593   -0.51285   -0.47698   -0.47507   -0.47100   -0.44701   -0.44046   -0.43871
  -0.42920   -0.42621   -0.42021   -0.40880   -0.39493   -0.38245   -0.38191   -0.36443
  -0.34967   -0.33498   -0.32916   -0.31727   -0.29392   -0.28973   -0.28904   -0.26185
  -0.25139   -0.25083   -0.24798   -0.24317   -0.22417   -0.20666   -0.19793   -0.16986
  -0.16920   -0.16595   -0.15442   -0.13879
 prteigrs : prtvol=0 or 1, do not print more k-points.


--------------------------------------------------------------------------------
 Components of total free energy (in Hartree) :

    Kinetic energy  =  1.13556721666253E+02
    Hartree energy  =  1.71752238386797E+03
    XC energy       = -5.92619154041341E+01
    Ewald energy    =  1.60013806305516E+03
    PspCore energy  =  6.01210152825624E-02
    Loc. psp. energy= -3.55952741082071E+03
    NL   psp  energy=  1.91960624636906E+01
    >>>>>>>>> Etotal= -1.68315974156490E+02

 Other information on the energy :
    Total energy(eV)= -4.58011058254210E+03 ; Band energy (Ha)=  -5.5507444540E+01
--------------------------------------------------------------------------------

 Cartesian components of stress tensor (hartree/bohr^3)
  sigma(1 1)=  3.96630153E-05  sigma(3 2)=  0.00000000E+00
  sigma(2 2)=  3.48186192E-05  sigma(3 1)=  0.00000000E+00
  sigma(3 3)=  2.32375418E-05  sigma(2 1)=  0.00000000E+00

-Cartesian components of stress tensor (GPa)         [Pressure= -9.5833E-01 GPa]
- sigma(1 1)=  1.16692600E+00  sigma(3 2)=  0.00000000E+00
- sigma(2 2)=  1.02439897E+00  sigma(3 1)=  0.00000000E+00
- sigma(3 3)=  6.83671970E-01  sigma(2 1)=  0.00000000E+00

== END DATASET(S) ==============================================================
================================================================================
  
 -outvars: echo values of variables after computation  --------
            acell      8.0502333261E+00  1.0582466344E+02  5.6691783987E+01 Bohr
              amu      1.20110000E+01
           diemac      1.00000000E+01
             ecut      1.90000000E+01 Hartree
           etotal1    -1.6831550917E+02
           etotal2    -1.6832170185E+02
           etotal3    -1.6831597416E+02
            fcart1     1.5161438276E-01  1.7354520242E-02  7.7811663317E-31
                       1.2633230353E-02 -1.6597047749E-02  7.7811663317E-31
                       1.4050884080E-02 -3.9192444483E-03  7.7811663317E-31
                       7.2432596074E-03 -4.2567230922E-04  7.7811663317E-31
                       1.5050113995E-03  1.4179444352E-03 -1.0802564767E-29
                       5.5452557478E-04 -5.4529687467E-04  5.8184065708E-29
                       2.0607683150E-03 -3.3939700515E-04  7.7811663317E-31
                       2.5639128209E-03  4.4899528833E-04 -1.0203217418E-28
                       7.8567402573E-04  5.2211734329E-04  7.7811663317E-31
                       1.7461581613E-03 -1.5089348217E-03  7.7811663317E-31
                       8.5576871198E-03 -1.0412738469E-04  4.1131347106E-29
                       1.5128645452E-02  3.7176716816E-03  7.7811663317E-31
                       1.2447864560E-02  1.7853913780E-02 -4.4967140326E-29
                       1.5286514430E-01 -1.7875442178E-02  4.5250159596E-29
                      -1.5161438276E-01  1.7354520242E-02  7.7811663317E-31
                      -1.2633230353E-02 -1.6597047749E-02  1.4512129901E-29
                      -1.4050884080E-02 -3.9192444483E-03  7.7811663317E-31
                      -7.2432596074E-03 -4.2567230922E-04  7.7811663317E-31
                      -1.5050113995E-03  1.4179444352E-03  7.7811663317E-31
                      -5.5452557478E-04 -5.4529687467E-04  7.7811663317E-31
                      -2.0607683150E-03 -3.3939700515E-04  7.7811663317E-31
                      -2.5639128209E-03  4.4899528833E-04  7.7811663317E-31
                      -7.8567402573E-04  5.2211734329E-04 -1.6838155704E-29
                      -1.7461581613E-03 -1.5089348217E-03  7.7811663317E-31
                      -8.5576871198E-03 -1.0412738469E-04  7.7811663317E-31
                      -1.5128645452E-02  3.7176716816E-03  7.7811663317E-31
                      -1.2447864560E-02  1.7853913780E-02  7.7811663317E-31
                      -1.5286514430E-01 -1.7875442178E-02  7.7811663317E-31
            fcart2     1.5656944840E-01  2.7834633271E-02 -0.0000000000E+00
                       1.2875645573E-02 -2.4070395614E-02 -0.0000000000E+00
                       1.3452588605E-02 -5.5112010510E-03 -0.0000000000E+00
                       8.1189638826E-03  9.8346490131E-04 -0.0000000000E+00
                       1.3166746694E-03  5.1894874266E-04 -0.0000000000E+00
                       4.3343192079E-04 -1.8065454770E-03 -0.0000000000E+00
                       2.9794463983E-03 -5.0740384303E-04 -0.0000000000E+00
                       3.1726377536E-03  2.5062453532E-04 -0.0000000000E+00
                       1.1124614507E-03  1.2397231247E-03 -0.0000000000E+00
                       1.4804686002E-03 -7.1905060247E-05 -0.0000000000E+00
                       7.5896749115E-03  1.8612777325E-04 -0.0000000000E+00
                       1.4563658691E-02  4.3286044674E-03 -0.0000000000E+00
                       1.4130401209E-02  2.1206544106E-02 -0.0000000000E+00
                       1.5878741158E-01 -2.4581219876E-02 -0.0000000000E+00
                      -1.5656944840E-01  2.7834633271E-02 -0.0000000000E+00
                      -1.2875645573E-02 -2.4070395614E-02 -0.0000000000E+00
                      -1.3452588605E-02 -5.5112010510E-03 -0.0000000000E+00
                      -8.1189638826E-03  9.8346490131E-04 -0.0000000000E+00
                      -1.3166746694E-03  5.1894874266E-04 -0.0000000000E+00
                      -4.3343192079E-04 -1.8065454770E-03 -0.0000000000E+00
                      -2.9794463983E-03 -5.0740384303E-04 -0.0000000000E+00
                      -3.1726377536E-03  2.5062453532E-04 -0.0000000000E+00
                      -1.1124614507E-03  1.2397231247E-03 -0.0000000000E+00
                      -1.4804686002E-03 -7.1905060247E-05 -0.0000000000E+00
                      -7.5896749115E-03  1.8612777325E-04 -0.0000000000E+00
                      -1.4563658691E-02  4.3286044674E-03 -0.0000000000E+00
                      -1.4130401209E-02  2.1206544106E-02 -0.0000000000E+00
                      -1.5878741158E-01 -2.4581219876E-02 -0.0000000000E+00
            fcart3     1.5683713144E-01  2.7487037009E-02 -1.9878438657E-33
                       1.1420669748E-02 -2.4291050912E-02 -1.9878438657E-33
                       1.3829859461E-02 -4.6922406851E-03 -1.9878438657E-33
                       5.3729909124E-03  1.4322984491E-03  2.5841970254E-32
                      -8.9046248076E-04 -6.5995991478E-04 -1.9878438657E-33
                       9.7753409483E-04 -1.4500498444E-03 -1.9878438657E-33
                       4.5068276198E-04  2.8211728892E-04 -1.9878438657E-33
                       1.2207448647E-03 -9.3612080164E-04 -1.9878438657E-33
                       1.7763853469E-03  1.1851704730E-03 -1.9878438657E-33
                      -3.3279867305E-04  3.4043836027E-04 -1.9878438657E-33
                       6.3941850201E-03 -6.7733178784E-04 -1.9878438657E-33
                       1.4488864427E-02  5.3241226617E-03 -1.9878438657E-33
                       7.3158444008E-03  2.2043829112E-02 -1.9878438657E-33
                       1.4864556477E-01 -2.5388259409E-02 -1.9878438657E-33
                      -1.5683713144E-01  2.7487037009E-02 -1.9878438657E-33
                      -1.1420669748E-02 -2.4291050912E-02 -1.9878438657E-33
                      -1.3829859461E-02 -4.6922406851E-03 -1.9878438657E-33
                      -5.3729909124E-03  1.4322984491E-03 -1.9878438657E-33
                       8.9046248076E-04 -6.5995991478E-04 -1.9878438657E-33
                      -9.7753409483E-04 -1.4500498444E-03 -1.9878438657E-33
                      -4.5068276198E-04  2.8211728892E-04 -1.9878438657E-33
                      -1.2207448647E-03 -9.3612080164E-04 -1.9878438657E-33
                      -1.7763853469E-03  1.1851704730E-03 -1.9878438657E-33
                       3.3279867305E-04  3.4043836027E-04 -1.9878438657E-33
                      -6.3941850201E-03 -6.7733178784E-04  2.5841970254E-32
                      -1.4488864427E-02  5.3241226617E-03 -1.9878438657E-33
                      -7.3158444008E-03  2.2043829112E-02 -1.9878438657E-33
                      -1.4864556477E-01 -2.5388259409E-02 -1.9878438657E-33
-          fftalg         112
           getden          -1
           istwfk1       2    0    0    0    0    3
           istwfk2       2    0    0    0    0    0    0    0    3
           istwfk3       2    0    0    0    0    0    0    0    0    0
                         3
           jdtset        1    2    3
              kpt1     0.00000000E+00  0.00000000E+00  0.00000000E+00
                       1.00000000E-01  0.00000000E+00  0.00000000E+00
                       2.00000000E-01  0.00000000E+00  0.00000000E+00
                       3.00000000E-01  0.00000000E+00  0.00000000E+00
                       4.00000000E-01  0.00000000E+00  0.00000000E+00
                       5.00000000E-01  0.00000000E+00  0.00000000E+00
              kpt2     0.00000000E+00  0.00000000E+00  0.00000000E+00
                       6.25000000E-02  0.00000000E+00  0.00000000E+00
                       1.25000000E-01  0.00000000E+00  0.00000000E+00
                       1.87500000E-01  0.00000000E+00  0.00000000E+00
                       2.50000000E-01  0.00000000E+00  0.00000000E+00
                       3.12500000E-01  0.00000000E+00  0.00000000E+00
                       3.75000000E-01  0.00000000E+00  0.00000000E+00
                       4.37500000E-01  0.00000000E+00  0.00000000E+00
                       5.00000000E-01  0.00000000E+00  0.00000000E+00
              kpt3     0.00000000E+00  0.00000000E+00  0.00000000E+00
                       5.00000000E-02  0.00000000E+00  0.00000000E+00
                       1.00000000E-01  0.00000000E+00  0.00000000E+00
                       1.50000000E-01  0.00000000E+00  0.00000000E+00
                       2.00000000E-01  0.00000000E+00  0.00000000E+00
                       2.50000000E-01  0.00000000E+00  0.00000000E+00
                       3.00000000E-01  0.00000000E+00  0.00000000E+00
                       3.50000000E-01  0.00000000E+00  0.00000000E+00
                       4.00000000E-01  0.00000000E+00  0.00000000E+00
                       4.50000000E-01  0.00000000E+00  0.00000000E+00
                       5.00000000E-01  0.00000000E+00  0.00000000E+00
         kptrlatt1      10    0    0      0    1    0      0    0    1
         kptrlatt2      16    0    0      0    1    0      0    0    1
         kptrlatt3      20    0    0      0    1    0      0    0    1
          kptrlen1     8.05023333E+01
          kptrlen2     1.28803733E+02
          kptrlen3     1.61004667E+02
P           mkmem1          6
P           mkmem2          9
P           mkmem3         11
            natom          28
            nband1         60
            nband2         60
            nband3         60
           ndtset           3
            ngfft          32     432     225
             nkpt1          6
             nkpt2          9
             nkpt3         11
            nstep          10
             nsym           4
           ntypat           1
              occ1     2.000000  2.000000  2.000000  2.000000  2.000000  2.000000
                       2.000000  2.000000  2.000000  2.000000  2.000000  2.000000
                       2.000000  2.000000  2.000000  2.000000  2.000000  2.000000
                       2.000000  2.000000  2.000000  2.000000  2.000000  2.000000
                       2.000000  2.000000  2.000000  2.000000  2.000000  2.000000
                       2.000000  2.000000  2.000000  2.000000  2.000000  2.000000
                       2.000000  2.000000  2.000000  2.000000  2.000000  2.000000
                       2.000000  2.000000  2.000000  2.000000  2.000000  2.000000
                       2.000000  2.000000  2.000000  2.000000  2.000000  2.000000
                       2.000000  2.000000  0.000000  0.000000  0.000000  0.000000
              occ2     2.000000  2.000000  2.000000  2.000000  2.000000  2.000000
                       2.000000  2.000000  2.000000  2.000000  2.000000  2.000000
                       2.000000  2.000000  2.000000  2.000000  2.000000  2.000000
                       2.000000  2.000000  2.000000  2.000000  2.000000  2.000000
                       2.000000  2.000000  2.000000  2.000000  2.000000  2.000000
                       2.000000  2.000000  2.000000  2.000000  2.000000  2.000000
                       2.000000  2.000000  2.000000  2.000000  2.000000  2.000000
                       2.000000  2.000000  2.000000  2.000000  2.000000  2.000000
                       2.000000  2.000000  2.000000  2.000000  2.000000  2.000000
                       2.000000  2.000000  0.000000  0.000000  0.000000  0.000000
              occ3     2.000000  2.000000  2.000000  2.000000  2.000000  2.000000
                       2.000000  2.000000  2.000000  2.000000  2.000000  2.000000
                       2.000000  2.000000  2.000000  2.000000  2.000000  2.000000
                       2.000000  2.000000  2.000000  2.000000  2.000000  2.000000
                       2.000000  2.000000  2.000000  2.000000  2.000000  2.000000
                       2.000000  2.000000  2.000000  2.000000  2.000000  2.000000
                       2.000000  2.000000  2.000000  2.000000  2.000000  2.000000
                       2.000000  2.000000  2.000000  2.000000  2.000000  2.000000
                       2.000000  2.000000  2.000000  2.000000  2.000000  2.000000
                       2.000000  2.000000  0.000000  0.000000  0.000000  0.000000
          spgroup          25
           strten1     3.8482341249E-05  3.4692475565E-05  3.8434881713E-05
                       0.0000000000E+00  0.0000000000E+00  0.0000000000E+00
           strten2     4.0866723923E-05  3.4075552595E-05  2.4254292239E-05
                       0.0000000000E+00  0.0000000000E+00  0.0000000000E+00
           strten3     3.9663015263E-05  3.4818619243E-05  2.3237541843E-05
                       0.0000000000E+00  0.0000000000E+00  0.0000000000E+00
           symrel      1  0  0   0  1  0   0  0  1      -1  0  0   0  1  0   0  0 -1
                       1  0  0   0  1  0   0  0 -1      -1  0  0   0  1  0   0  0  1
            tnons      0.0000000  0.0000000  0.0000000     0.3333333  0.0000000  0.0000000
                       0.0000000  0.0000000  0.0000000     0.3333333  0.0000000  0.0000000
           toldfe      1.00000000E-06 Hartree
            typat      1  1  1  1  1  1  1  1  1  1  1  1  1  1  1  1  1  1  1  1
                       1  1  1  1  1  1  1  1
              wtk1       0.10000    0.20000    0.20000    0.20000    0.20000    0.10000
              wtk2       0.06250    0.12500    0.12500    0.12500    0.12500    0.12500
                         0.12500    0.12500    0.06250
              wtk3       0.05000    0.10000    0.10000    0.10000    0.10000    0.10000
                         0.10000    0.10000    0.10000    0.10000    0.05000
           xangst      0.0000000000E+00  0.0000000000E+00  0.0000000000E+00
                       2.1300000000E+00  1.2297600000E+00  0.0000000000E+00
                       0.0000000000E+00  2.4595100000E+00  0.0000000000E+00
                       2.1300000000E+00  3.6892700000E+00  0.0000000000E+00
                       0.0000000000E+00  4.9190200000E+00  0.0000000000E+00
                       2.1300000000E+00  6.1487800000E+00  0.0000000000E+00
                       0.0000000000E+00  7.3785400000E+00  0.0000000000E+00
                       2.1300000000E+00  8.6082900000E+00  0.0000000000E+00
                       0.0000000000E+00  9.8380500000E+00  0.0000000000E+00
                       2.1300000000E+00  1.1067800000E+01  0.0000000000E+00
                       0.0000000000E+00  1.2297560000E+01  0.0000000000E+00
                       2.1300000000E+00  1.3527320000E+01  0.0000000000E+00
                       0.0000000000E+00  1.4757070000E+01  0.0000000000E+00
                       2.1300000000E+00  1.5986830000E+01  0.0000000000E+00
                       1.4200000000E+00  0.0000000000E+00  0.0000000000E+00
                      -7.1000000000E-01  1.2297600000E+00  0.0000000000E+00
                       1.4200000000E+00  2.4595100000E+00  0.0000000000E+00
                      -7.1000000000E-01  3.6892700000E+00  0.0000000000E+00
                       1.4200000000E+00  4.9190200000E+00  0.0000000000E+00
                      -7.1000000000E-01  6.1487800000E+00  0.0000000000E+00
                       1.4200000000E+00  7.3785400000E+00  0.0000000000E+00
                      -7.1000000000E-01  8.6082900000E+00  0.0000000000E+00
                       1.4200000000E+00  9.8380500000E+00  0.0000000000E+00
                      -7.1000000000E-01  1.1067800000E+01  0.0000000000E+00
                       1.4200000000E+00  1.2297560000E+01  0.0000000000E+00
                      -7.1000000000E-01  1.3527320000E+01  0.0000000000E+00
                       1.4200000000E+00  1.4757070000E+01  0.0000000000E+00
                      -7.1000000000E-01  1.5986830000E+01  0.0000000000E+00
            xcart      0.0000000000E+00  0.0000000000E+00  0.0000000000E+00
                       4.0251166630E+00  2.3239096092E+00  0.0000000000E+00
                       0.0000000000E+00  4.6478003211E+00  0.0000000000E+00
                       4.0251166630E+00  6.9717099303E+00  0.0000000000E+00
                       0.0000000000E+00  9.2956006422E+00  0.0000000000E+00
                       4.0251166630E+00  1.1619510251E+01  0.0000000000E+00
                       0.0000000000E+00  1.3943419861E+01  0.0000000000E+00
                       4.0251166630E+00  1.6267310572E+01  0.0000000000E+00
                       0.0000000000E+00  1.8591220182E+01  0.0000000000E+00
                       4.0251166630E+00  2.0915110894E+01  0.0000000000E+00
                       0.0000000000E+00  2.3239020503E+01  0.0000000000E+00
                       4.0251166630E+00  2.5562930112E+01  0.0000000000E+00
                       0.0000000000E+00  2.7886820824E+01  0.0000000000E+00
                       4.0251166630E+00  3.0210730433E+01  0.0000000000E+00
                       2.6834111087E+00  0.0000000000E+00  0.0000000000E+00
                      -1.3417055543E+00  2.3239096092E+00  0.0000000000E+00
                       2.6834111087E+00  4.6478003211E+00  0.0000000000E+00
                      -1.3417055543E+00  6.9717099303E+00  0.0000000000E+00
                       2.6834111087E+00  9.2956006422E+00  0.0000000000E+00
                      -1.3417055543E+00  1.1619510251E+01  0.0000000000E+00
                       2.6834111087E+00  1.3943419861E+01  0.0000000000E+00
                      -1.3417055543E+00  1.6267310572E+01  0.0000000000E+00
                       2.6834111087E+00  1.8591220182E+01  0.0000000000E+00
                      -1.3417055543E+00  2.0915110894E+01  0.0000000000E+00
                       2.6834111087E+00  2.3239020503E+01  0.0000000000E+00
                      -1.3417055543E+00  2.5562930112E+01  0.0000000000E+00
                       2.6834111087E+00  2.7886820824E+01  0.0000000000E+00
                      -1.3417055543E+00  3.0210730433E+01  0.0000000000E+00
             xred      0.0000000000E+00  0.0000000000E+00  0.0000000000E+00
                       5.0000000000E-01  2.1960000000E-02  0.0000000000E+00
                       0.0000000000E+00  4.3919821429E-02  0.0000000000E+00
                       5.0000000000E-01  6.5879821429E-02  0.0000000000E+00
                       0.0000000000E+00  8.7839642857E-02  0.0000000000E+00
                       5.0000000000E-01  1.0979964286E-01  0.0000000000E+00
                       0.0000000000E+00  1.3175964286E-01  0.0000000000E+00
                       5.0000000000E-01  1.5371946429E-01  0.0000000000E+00
                       0.0000000000E+00  1.7567946429E-01  0.0000000000E+00
                       5.0000000000E-01  1.9763928571E-01  0.0000000000E+00
                       0.0000000000E+00  2.1959928571E-01  0.0000000000E+00
                       5.0000000000E-01  2.4155928571E-01  0.0000000000E+00
                       0.0000000000E+00  2.6351910714E-01  0.0000000000E+00
                       5.0000000000E-01  2.8547910714E-01  0.0000000000E+00
                       3.3333333333E-01  0.0000000000E+00  0.0000000000E+00
                      -1.6666666667E-01  2.1960000000E-02  0.0000000000E+00
                       3.3333333333E-01  4.3919821429E-02  0.0000000000E+00
                      -1.6666666667E-01  6.5879821429E-02  0.0000000000E+00
                       3.3333333333E-01  8.7839642857E-02  0.0000000000E+00
                      -1.6666666667E-01  1.0979964286E-01  0.0000000000E+00
                       3.3333333333E-01  1.3175964286E-01  0.0000000000E+00
                      -1.6666666667E-01  1.5371946429E-01  0.0000000000E+00
                       3.3333333333E-01  1.7567946429E-01  0.0000000000E+00
                      -1.6666666667E-01  1.9763928571E-01  0.0000000000E+00
                       3.3333333333E-01  2.1959928571E-01  0.0000000000E+00
                      -1.6666666667E-01  2.4155928571E-01  0.0000000000E+00
                       3.3333333333E-01  2.6351910714E-01  0.0000000000E+00
                      -1.6666666667E-01  2.8547910714E-01  0.0000000000E+00
            znucl        6.00000

================================================================================

- Total cpu        time (s,m,h):      25284.4      421.41      7.023
- Total wall clock time (s,m,h):      24444.9      407.42      6.790
-
- For major independent code sections, cpu and wall times (sec),
-  as well as % of the time and number of calls for node 0-
-<BEGIN_TIMER mpi_nprocs = 1, omp_nthreads = 1, mpi_rank = 0>
- cpu_time =        25284.4, wall_time =        24444.9
-
- routine                        cpu     %       wall     %      number of calls  Gflops    Speedup Efficacity
-                                                                  (-1=no count)
- projbd                     10009.245  39.6  10012.725  41.0         149758      -1.00        1.00       1.00
- fourwf%(pot)                9440.909  37.3   9444.293  38.6          93599      -1.00        1.00       1.00
- nonlop(apply)               2159.631   8.5   2161.409   8.8          93599      -1.00        1.00       1.00
- vtowfk(ssdiag)              1491.721   5.9    645.817   2.6             -1      -1.00        2.31       2.31
- fourwf%(den)                 793.673   3.1    794.014   3.2          14560      -1.00        1.00       1.00
- others (108)                 258.183   1.0    256.127   1.0             -1      -1.00        1.01       1.01
-<END_TIMER>
-
- subtotal                   24153.362  95.5  23314.385  95.4                                  1.04       1.04

- For major independent code sections, cpu and wall times (sec),
- as well as % of the total time and number of calls 

-<BEGIN_TIMER mpi_nprocs = 1, omp_nthreads = 1, mpi_rank = world>
- cpu_time =       25284.4, wall_time =       24444.9
-
- routine                         cpu     %       wall     %      number of calls Gflops    Speedup Efficacity
-                                                                  (-1=no count)
- projbd                     10009.245  39.6  10012.725  41.0         149758      -1.00        1.00       1.00
- fourwf%(pot)                9440.909  37.3   9444.293  38.6          93599      -1.00        1.00       1.00
- nonlop(apply)               2159.631   8.5   2161.409   8.8          93599      -1.00        1.00       1.00
- vtowfk(ssdiag)              1491.721   5.9    645.817   2.6             -1      -1.00        2.31       2.31
- fourwf%(den)                 793.673   3.1    794.014   3.2          14560      -1.00        1.00       1.00
- others (108)                 258.183   1.0    256.127   1.0             -1      -1.00        1.01       1.01
-<END_TIMER>

- subtotal                   24153.362  95.5  23314.385  95.4                                  1.04       1.04

================================================================================

 Suggested references for the acknowledgment of ABINIT usage.

 The users of ABINIT have little formal obligations with respect to the ABINIT group
 (those specified in the GNU General Public License, http://www.gnu.org/copyleft/gpl.txt).
 However, it is common practice in the scientific literature,
 to acknowledge the efforts of people that have made the research possible.
 In this spirit, please find below suggested citations of work written by ABINIT developers,
 corresponding to implementations inside of ABINIT that you have used in the present run.
 Note also that it will be of great value to readers of publications presenting these results,
 to read papers enabling them to understand the theoretical formalism and details
 of the ABINIT implementation.
 For information on why they are suggested, see also http://www.abinit.org/about/?text=acknowledgments.
-
- [1] Recent developments in the ABINIT software package.
- Computer Phys. Comm. 205, 106 (2016).
- X.Gonze, F.Jollet, F.Abreu Araujo, D.Adams, B.Amadon, T.Applencourt,
- C.Audouze, J.-M.Beuken, J.Bieder, A.Bokhanchuk, E.Bousquet, F.Bruneval
- D.Caliste, M.Cote, F.Dahm, F.Da Pieve, M.Delaveau, M.Di Gennaro,
- B.Dorado, C.Espejo, G.Geneste, L.Genovese, A.Gerossier, M.Giantomassi,
- Y.Gillet, D.R.Hamann, L.He, G.Jomard, J.Laflamme Janssen, S.Le Roux,
- A.Levitt, A.Lherbier, F.Liu, I.Lukacevic, A.Martin, C.Martins,
- M.J.T.Oliveira, S.Ponce, Y.Pouillon, T.Rangel, G.-M.Rignanese,
- A.H.Romero, B.Rousseau, O.Rubel, A.A.Shukri, M.Stankovski, M.Torrent,
- M.J.Van Setten, B.Van Troeye, M.J.Verstraete, D.Waroquier, J.Wiktor,
- B.Xue, A.Zhou, J.W.Zwanziger.
- Comment : the fourth generic paper describing the ABINIT project.
- Note that a version of this paper, that is not formatted for Computer Phys. Comm. 
- is available at http://www.abinit.org/about/ABINIT16.pdf .
- The licence allows the authors to put it on the Web.
-
- [2] ABINIT : First-principles approach of materials and nanosystem properties.
- Computer Phys. Comm. 180, 2582-2615 (2009).
- X. Gonze, B. Amadon, P.-M. Anglade, J.-M. Beuken, F. Bottin, P. Boulanger, F. Bruneval,
- D. Caliste, R. Caracas, M. Cote, T. Deutsch, L. Genovese, Ph. Ghosez, M. Giantomassi
- S. Goedecker, D.R. Hamann, P. Hermet, F. Jollet, G. Jomard, S. Leroux, M. Mancini, S. Mazevet,
- M.J.T. Oliveira, G. Onida, Y. Pouillon, T. Rangel, G.-M. Rignanese, D. Sangalli, R. Shaltaf,
- M. Torrent, M.J. Verstraete, G. Zerah, J.W. Zwanziger
- Comment : the third generic paper describing the ABINIT project.
- Note that a version of this paper, that is not formatted for Computer Phys. Comm. 
- is available at http://www.abinit.org/about/ABINIT_CPC_v10.pdf .
- The licence allows the authors to put it on the Web.
-
- [3] A brief introduction to the ABINIT software package.
- Z. Kristallogr. 220, 558-562 (2005).
- X. Gonze, G.-M. Rignanese, M. Verstraete, J.-M. Beuken, Y. Pouillon, R. Caracas, F. Jollet,
- M. Torrent, G. Zerah, M. Mikami, Ph. Ghosez, M. Veithen, J.-Y. Raty, V. Olevano, F. Bruneval,
- L. Reining, R. Godby, G. Onida, D.R. Hamann, and D.C. Allan.
- Comment : the second generic paper describing the ABINIT project. Note that this paper
- should be cited especially if you are using the GW part of ABINIT, as several authors
- of this part are not in the list of authors of the first or third paper.
- The .pdf of the latter paper is available at http://www.abinit.org/about/zfk_0505-06_558-562.pdf.
- Note that it should not redistributed (Copyright by Oldenburg Wissenshaftverlag,
- the licence allows the authors to put it on the Web).
-
- And optionally:
-
- [4] First-principles computation of material properties : the ABINIT software project. 
- X. Gonze, J.-M. Beuken, R. Caracas, F. Detraux, M. Fuchs, G.-M. Rignanese, L. Sindic,
- M. Verstraete, G. Zerah, F. Jollet, M. Torrent, A. Roy, M. Mikami, Ph. Ghosez, J.-Y. Raty, D.C. Allan.
- Computational Materials Science 25, 478-492 (2002). http://dx.doi.org/10.1016/S0927-0256(02)00325-7
- Comment : the original paper describing the ABINIT project.
-
- Proc.   0 individual time (sec): cpu=      25284.5  wall=      24445.0

================================================================================

 Calculation completed.
.Delivered  11 WARNINGs and   0 COMMENTs to log file.
+Overall time at end (sec) : cpu=      25284.5  wall=      24445.0
