
.Version 8.4.1 of ABINIT 
.(sequential version, prepared for a x86_64_linux_gnu7.0 computer) 

.Copyright (C) 1998-2017 ABINIT group . 
 ABINIT comes with ABSOLUTELY NO WARRANTY.
 It is free software, and you are welcome to redistribute it
 under certain conditions (GNU General Public License,
 see ~abinit/COPYING or http://www.gnu.org/copyleft/gpl.txt).

 ABINIT is a project of the Universite Catholique de Louvain,
 Corning Inc. and other collaborators, see ~abinit/doc/developers/contributors.txt .
 Please read ~abinit/doc/users/acknowledgments.html for suggested
 acknowledgments of the ABINIT effort.
 For more information, see http://www.abinit.org .

.Starting date : Fri 11 Aug 2017.
- ( at 13h29 )
  
- input  file    -> agnr_5.in
- output file    -> agnr_5.out
- root for input  files -> agnr_5i
- root for output files -> agnr_5o


 DATASET    1 : space group Pm m 2 (# 25); Bravais oP (primitive ortho.)
================================================================================
 Values of the parameters that define the memory need for DATASET  1.
     intxc =       0    ionmov =       0      iscf =       7    lmnmax =       1
     lnmax =       1     mgfft =     243  mpssoang =       2    mqgrid =   12090
     natom =      16  nloc_mem =       1    nspden =       1   nspinor =       1
    nsppol =       1      nsym =       4    n1xccc =    2501    ntypat =       1
    occopt =       1   xclevel =       1
-    mband =          34        mffmem =           1         mkmem =           3
       mpw =       54538          nfft =      933120          nkpt =           3
================================================================================
P This job should need less than                     361.449 Mbytes of memory.
  Rough estimation (10% accuracy) of disk space for files :
_ WF disk file :     84.885 Mbytes ; DEN or POT disk file :      7.121 Mbytes.
================================================================================


 DATASET    2 : space group Pm m 2 (# 25); Bravais oP (primitive ortho.)
================================================================================
 Values of the parameters that define the memory need for DATASET  2.
     intxc =       0    ionmov =       0      iscf =      -2    lmnmax =       1
     lnmax =       1     mgfft =     243  mpssoang =       2    mqgrid =   12090
     natom =      16  nloc_mem =       1    nspden =       1   nspinor =       1
    nsppol =       1      nsym =       4    n1xccc =    2501    ntypat =       1
    occopt =       1   xclevel =       1
-    mband =          36        mffmem =           1         mkmem =          21
       mpw =       54660          nfft =      933120          nkpt =          21
================================================================================
P This job should need less than                     804.811 Mbytes of memory.
  Rough estimation (10% accuracy) of disk space for files :
_ WF disk file :    630.540 Mbytes ; DEN or POT disk file :      7.121 Mbytes.
================================================================================

--------------------------------------------------------------------------------
------------- Echo of variables that govern the present computation ------------
--------------------------------------------------------------------------------
-
- outvars: echo of selected default values                                      
-   iomode0 =  0 , fftalg0 =112 , wfoptalg0 =  0
-
- outvars: echo of global parameters not present in the input file              
-  max_nthreads =    0
-
 -outvars: echo values of preprocessed input variables --------
            acell      8.0465943961E+00  7.1777133110E+01  3.7777438479E+01 Bohr
              amu      1.20110000E+01
           diemac      1.00000000E+01
             ecut      1.40000000E+01 Hartree
           enunit1          0
           enunit2          1
-          fftalg         112
           getden1          0
           getden2         -1
             iscf1          7
             iscf2         -2
           istwfk1       2    0    3
           istwfk2       2    0    0    0    0    0    0    0    0    0
                         3    0    0    0    0    0    0    0    0    0
                         0
           jdtset        1    2
              kpt1     0.00000000E+00  0.00000000E+00  0.00000000E+00
                       2.50000000E-01  0.00000000E+00  0.00000000E+00
                       5.00000000E-01  0.00000000E+00  0.00000000E+00
              kpt2     0.00000000E+00  0.00000000E+00  0.00000000E+00
                       5.00000000E-02  0.00000000E+00  0.00000000E+00
                       1.00000000E-01  0.00000000E+00  0.00000000E+00
                       1.50000000E-01  0.00000000E+00  0.00000000E+00
                       2.00000000E-01  0.00000000E+00  0.00000000E+00
                       2.50000000E-01  0.00000000E+00  0.00000000E+00
                       3.00000000E-01  0.00000000E+00  0.00000000E+00
                       3.50000000E-01  0.00000000E+00  0.00000000E+00
                       4.00000000E-01  0.00000000E+00  0.00000000E+00
                       4.50000000E-01  0.00000000E+00  0.00000000E+00
                       5.00000000E-01  0.00000000E+00  0.00000000E+00
                       5.50000000E-01  0.00000000E+00  0.00000000E+00
                       6.00000000E-01  0.00000000E+00  0.00000000E+00
                       6.50000000E-01  0.00000000E+00  0.00000000E+00
                       7.00000000E-01  0.00000000E+00  0.00000000E+00
                       7.50000000E-01  0.00000000E+00  0.00000000E+00
                       8.00000000E-01  0.00000000E+00  0.00000000E+00
                       8.50000000E-01  0.00000000E+00  0.00000000E+00
                       9.00000000E-01  0.00000000E+00  0.00000000E+00
                       9.50000000E-01  0.00000000E+00  0.00000000E+00
                       1.00000000E+00  0.00000000E+00  0.00000000E+00
           kptopt1          1
           kptopt2         -1
         kptrlatt        4    0    0      0    1    0      0    0    1
          kptrlen1     3.21863776E+01
          kptrlen2     3.00000000E+01
P           mkmem1          3
P           mkmem2         21
            natom          16
            nband1         34
            nband2         36
           nbdbuf1          0
           nbdbuf2          2
           ndtset           2
            ngfft          30     243     128
             nkpt1          3
             nkpt2         21
            nstep          10
             nsym           4
           ntypat           1
              occ      2.000000  2.000000  2.000000  2.000000  2.000000  2.000000
                       2.000000  2.000000  2.000000  2.000000  2.000000  2.000000
                       2.000000  2.000000  2.000000  2.000000  2.000000  2.000000
                       2.000000  2.000000  2.000000  2.000000  2.000000  2.000000
                       2.000000  2.000000  2.000000  2.000000  2.000000  2.000000
                       2.000000  2.000000  0.000000  0.000000
           shiftk1     0.00000000E+00  0.00000000E+00  0.00000000E+00
           shiftk2     5.00000000E-01  5.00000000E-01  5.00000000E-01
          spgroup          25
           symrel      1  0  0   0  1  0   0  0  1      -1  0  0   0  1  0   0  0 -1
                       1  0  0   0  1  0   0  0 -1      -1  0  0   0  1  0   0  0  1
            tnons      0.0000000  0.0000000  0.0000000     0.3333333  0.0000000 -0.0000000
                       0.0000000  0.0000000 -0.0000000     0.3333333  0.0000000  0.0000000
           toldfe1     1.00000000E-06 Hartree
           toldfe2     0.00000000E+00 Hartree
           tolwfr1     0.00000000E+00
           tolwfr2     1.00000000E-12
            typat      1  1  1  1  1  1  1  1  1  1  1  1  1  1  1  1
              wtk1       0.25000    0.50000    0.25000
              wtk2       1.00000    1.00000    1.00000    1.00000    1.00000    1.00000
                         1.00000    1.00000    1.00000    1.00000    1.00000    1.00000
                         1.00000    1.00000    1.00000    1.00000    1.00000    1.00000
                         1.00000    1.00000    1.00000
           xangst      8.2043157861E-02  9.6189362538E-02 -3.1418016479E-30
                       2.1451141551E+00  1.2392927615E+00  2.0231805265E-31
                       1.7693839959E-03  2.4638675980E+00  2.0231805265E-31
                       2.1328287017E+00  3.6861221294E+00  2.0231805265E-31
                       3.7766367081E-03  4.9182501816E+00  2.0231805265E-31
                       2.1307894660E+00  6.1405112971E+00  2.0231805265E-31
                       1.6063975716E-02  7.3651424662E+00  2.0231805265E-31
                       2.2108396379E+00  8.5082294504E+00  2.0231805265E-31
                       1.3373149625E+00  9.6189362538E-02  2.0231805265E-31
                      -7.2575603468E-01  1.2392927615E+00  3.0934891077E-31
                       1.4175887364E+00  2.4638675980E+00  2.0231805265E-31
                      -7.1347058130E-01  3.6861221294E+00  2.0231805265E-31
                       1.4155814837E+00  4.9182501816E+00  2.0231805265E-31
                      -7.1143134563E-01  6.1405112971E+00  2.0231805265E-31
                       1.4032941447E+00  7.3651424662E+00  2.0231805265E-31
                      -7.9148151748E-01  8.5082294504E+00  2.0231805265E-31
            xcart      1.5503909943E-01  1.8177155209E-01 -5.9371446784E-30
                       4.0536782769E+00  2.3419239177E+00  3.8232571125E-31
                       3.3436511762E-03  4.6560349879E+00  3.8232571125E-31
                       4.0304621346E+00  6.9657613169E+00  3.8232571125E-31
                       7.1368090817E-03  9.2941458962E+00  3.8232571125E-31
                       4.0266085376E+00  1.1603884667E+01  3.8232571125E-31
                       3.0356514709E-02  1.3918102191E+01  3.8232571125E-31
                       4.1778814394E+00  1.6078223537E+01  3.8232571125E-31
                       2.5271590325E+00  1.8177155209E-01  3.8232571125E-31
                      -1.3714801448E+00  2.3419239177E+00  5.8458472086E-31
                       2.6788544809E+00  4.6560349879E+00  3.8232571125E-31
                      -1.3482640025E+00  6.9657613169E+00  3.8232571125E-31
                       2.6750613230E+00  9.2941458962E+00  3.8232571125E-31
                      -1.3444104056E+00  1.1603884667E+01  3.8232571125E-31
                       2.6518416174E+00  1.3918102191E+01  3.8232571125E-31
                      -1.4956833073E+00  1.6078223537E+01  3.8232571125E-31
             xred      1.9267666767E-02  2.5324437494E-03 -1.5716112361E-31
                       5.0377564437E-01  3.2627716046E-02  1.0120477371E-32
                       4.1553618979E-04  6.4867943120E-02  1.0120477371E-32
                       5.0089043093E-01  9.7047081920E-02  1.0120477371E-32
                       8.8693535804E-04  1.2948616772E-01  1.0120477371E-32
                       5.0041152062E-01  1.6166547986E-01  1.0120477371E-32
                       3.7725916350E-03  1.9390719004E-01  1.0120477371E-32
                       5.1921113874E-01  2.2400203018E-01  1.0120477371E-32
                       3.1406566656E-01  2.5324437494E-03  1.0120477371E-32
                      -1.7044231104E-01  3.2627716046E-02  1.5474440417E-32
                       3.3291779714E-01  6.4867943120E-02  1.0120477371E-32
                      -1.6755709759E-01  9.7047081920E-02  1.0120477371E-32
                       3.3244639798E-01  1.2948616772E-01  1.0120477371E-32
                      -1.6707818729E-01  1.6166547986E-01  1.0120477371E-32
                       3.2956074170E-01  1.9390719004E-01  1.0120477371E-32
                      -1.8587780540E-01  2.2400203018E-01  1.0120477371E-32
            znucl        6.00000

================================================================================

 chkinp: Checking input parameters for consistency, jdtset=   1.

 chkinp: Checking input parameters for consistency, jdtset=   2.

================================================================================
== DATASET  1 ==================================================================
-   nproc =    1

 Exchange-correlation functional for the present dataset will be:
  LDA: new Teter (4/93) with spin-polarized option - ixc=1
 Citation for XC functional:
  S. Goedecker, M. Teter, J. Huetter, PRB 54, 1703 (1996)

 Real(R)+Recip(G) space primitive vectors, cartesian coordinates (Bohr,Bohr^-1):
 R(1)=  8.0465944  0.0000000  0.0000000  G(1)=  0.1242762  0.0000000  0.0000000
 R(2)=  0.0000000 71.7771331  0.0000000  G(2)=  0.0000000  0.0139320  0.0000000
 R(3)=  0.0000000  0.0000000 37.7774385  G(3)=  0.0000000  0.0000000  0.0264708
 Unit cell volume ucvol=  2.1818793E+04 bohr^3
 Angles (23,13,12)=  9.00000000E+01  9.00000000E+01  9.00000000E+01 degrees

 getcut: wavevector=  0.0000  0.0000  0.0000  ngfft=  30 243 128
         ecut(hartree)=     14.000   => boxcut(ratio)=   2.00171

--- Pseudopotential description ------------------------------------------------
- pspini: atom type   1  psp file is ./6c.pspnc
- pspatm: opening atomic psp file    ./6c.pspnc
-  Troullier-Martins psp for element  C         Thu Oct 27 17:29:33 EDT 1994
-  6.00000   4.00000    940714                znucl, zion, pspdat
    1    1    1    1      2001   0.00000      pspcod,pspxc,lmax,lloc,mmax,r2well
    0  10.372  24.987    1   1.4850707        l,e99.0,e99.9,nproj,rcpsp
   0.00000000   0.00000000   0.00000000   0.00000000     rms, ekb1, ekb2, epsatm
    1  15.431  21.987    0   1.4850707        l,e99.0,e99.9,nproj,rcpsp
   0.00000000   0.00000000   0.00000000   0.00000000     rms, ekb1, ekb2, epsatm
    0.83985002509544    0.99012430797080    0.51184907750884   rchrg,fchrg,qchrg
 pspatm: epsatm=    0.92590353
         --- l  ekb(1:nproj) -->
             0    4.921466
 pspatm: atomic psp has been read  and splines computed

   9.48125214E+02                                ecore*ucvol(ha*bohr**3)
--------------------------------------------------------------------------------

_setup2: Arith. and geom. avg. npw (full set) are   54599.250   54599.216

================================================================================

     iter   Etot(hartree)      deltaE(h)  residm     vres2
 ETOT  1  -79.079426348550    -7.908E+01 9.941E-02 8.505E+05
 ETOT  2  -93.450790347932    -1.437E+01 1.591E-01 3.762E+04
 ETOT  3  -95.304592411629    -1.854E+00 7.784E-02 1.059E+04
 ETOT  4  -95.451490705961    -1.469E-01 3.077E-02 9.460E+03
 ETOT  5  -95.498162453805    -4.667E-02 7.886E-03 6.678E+03
 ETOT  6  -95.521265176214    -2.310E-02 1.536E-03 4.790E+03
 ETOT  7  -95.530103337815    -8.838E-03 4.884E-04 3.801E+03
 ETOT  8  -95.538082009823    -7.979E-03 2.062E-04 2.552E+03
 ETOT  9  -95.540078337381    -1.996E-03 1.702E-04 2.070E+03
 ETOT 10  -95.547394068517    -7.316E-03 7.305E-05 4.228E+01

 Cartesian components of stress tensor (hartree/bohr^3)
  sigma(1 1)=  5.97863557E-05  sigma(3 2)=  0.00000000E+00
  sigma(2 2)=  7.36490252E-05  sigma(3 1)=  0.00000000E+00
  sigma(3 3)=  8.94990887E-05  sigma(2 1)=  0.00000000E+00


 scprqt:  WARNING -
  nstep=   10 was not enough SCF cycles to converge;
  maximum energy difference=  7.316E-03 exceeds toldfe=  1.000E-06

 Integrated electronic density in atomic spheres:
 ------------------------------------------------
 Atom  Sphere_radius  Integrated_density
    1        2.00000          4.51780076
    2        2.00000          4.77647984
    3        2.00000          4.78396559
    4        2.00000          4.83690662
    5        2.00000          4.80501178
    6        2.00000          4.77112001
    7        2.00000          4.81853539
    8        2.00000          4.52096936
    9        2.00000          4.51780076
   10        2.00000          4.77647984
   11        2.00000          4.78396559
   12        2.00000          4.83690662
   13        2.00000          4.80501178
   14        2.00000          4.77112001
   15        2.00000          4.81853539
   16        2.00000          4.52096936
================================================================================

 ----iterations are completed or convergence reached----

 Mean square residual over all n,k,spin=   2.7570E-05; max=  7.3047E-05
 reduced coordinates (array xred) for   16 atoms
       0.019267666767      0.002532443749      0.000000000000
       0.503775644368      0.032627716046      0.000000000000
       0.000415536186      0.064867943120      0.000000000000
       0.500890430924      0.097047081920      0.000000000000
       0.000886935353      0.129486167719      0.000000000000
       0.500411520621      0.161665479863      0.000000000000
       0.003772591628      0.193907190044      0.000000000000
       0.519211138731      0.224002030178      0.000000000000
       0.314065666558      0.002532443749      0.000000000000
      -0.170442311042      0.032627716046      0.000000000000
       0.332917797140      0.064867943120      0.000000000000
      -0.167557097599      0.097047081920      0.000000000000
       0.332446397973      0.129486167719      0.000000000000
      -0.167078187295      0.161665479863      0.000000000000
       0.329560741697      0.193907190044      0.000000000000
      -0.185877805405      0.224002030178      0.000000000000
 rms dE/dt=  5.8195E-02; max dE/dt=  1.1654E-01; dE/dt below (all hartree)
    1      -0.017837427223      0.066770820654      0.000000000000
    2       0.000124506281      0.072338321242      0.000000000000
    3       0.001499737222     -0.166305363322      0.000000000000
    4      -0.011145749371     -0.048439015172      0.000000000000
    5      -0.009017036514      0.116542449670      0.000000000000
    6       0.003389119714      0.009517539415      0.000000000000
    7      -0.011123486650     -0.154000938796     -0.000000000000
    8      -0.004078702264      0.059313406547      0.000000000000
    9       0.017837427223      0.066770820654      0.000000000000
   10      -0.000124506281      0.072338321242      0.000000000000
   11      -0.001499737222     -0.166305363322      0.000000000000
   12       0.011145749371     -0.048439015172      0.000000000000
   13       0.009017036514      0.116542449670      0.000000000000
   14      -0.003389119714      0.009517539415      0.000000000000
   15       0.011123486650     -0.154000938796      0.000000000000
   16       0.004078702264      0.059313406547      0.000000000000

 cartesian coordinates (angstrom) at end:
    1      0.08204315786100     0.09618936253800     0.00000000000000
    2      2.14511415507050     1.23929276150000     0.00000000000000
    3      0.00176938397845     2.46386759800000     0.00000000000000
    4      2.13282870168050     3.68612212940000     0.00000000000000
    5      0.00377663668455     4.91825018160000     0.00000000000000
    6      2.13078946599550     6.14051129710000     0.00000000000000
    7      0.01606397568850     7.36514246620000     0.00000000000000
    8      2.21083963787050     8.50822945040000     0.00000000000000
    9      1.33731496250000     0.09618936253800     0.00000000000000
   10     -0.72575603470950     1.23929276150000     0.00000000000000
   11      1.41758873638255     2.46386759800000     0.00000000000000
   12     -0.71347058131950     3.68612212940000     0.00000000000000
   13      1.41558148367645     4.91825018160000     0.00000000000000
   14     -0.71143134563450     6.14051129710000     0.00000000000000
   15      1.40329414467250     7.36514246620000     0.00000000000000
   16     -0.79148151750950     8.50822945040000     0.00000000000000

 cartesian forces (hartree/bohr) at end:
    1      0.00221676728628    -0.00100733569302    -0.00000000000000
    2     -0.00001547316479    -0.00108490218734    -0.00000000000000
    3     -0.00018638161042     0.00223988488932    -0.00000000000000
    4      0.00138515113628     0.00059776931514    -0.00000000000000
    5      0.00112060283768    -0.00170075470907    -0.00000000000000
    6     -0.00042118684588    -0.00020968219589    -0.00000000000000
    7      0.00138238441037     0.00206845947856     0.00000000000000
    8      0.00050688552983    -0.00090343889771    -0.00000000000000
    9     -0.00221676728628    -0.00100733569302    -0.00000000000000
   10      0.00001547316479    -0.00108490218734    -0.00000000000000
   11      0.00018638161042     0.00223988488932    -0.00000000000000
   12     -0.00138515113628     0.00059776931514    -0.00000000000000
   13     -0.00112060283768    -0.00170075470907    -0.00000000000000
   14      0.00042118684588    -0.00020968219589    -0.00000000000000
   15     -0.00138238441037     0.00206845947856    -0.00000000000000
   16     -0.00050688552983    -0.00090343889771    -0.00000000000000
 frms,max,avg= 1.0421564E-03 2.2398849E-03   0.000E+00  7.708E-05  0.000E+00 h/b

 cartesian forces (eV/Angstrom) at end:
    1      0.11399074747773    -0.05179927966221    -0.00000000000000
    2     -0.00079566205781    -0.05578790883458    -0.00000000000000
    3     -0.00958412694864     0.11517950232171    -0.00000000000000
    4      0.07122732926079     0.03073853149758    -0.00000000000000
    5      0.05762370993231    -0.08745631612417    -0.00000000000000
    6     -0.02165829660480    -0.01078229112722    -0.00000000000000
    7      0.07108505850599     0.10636445401722     0.00000000000000
    8      0.02606509974599    -0.04645669208833    -0.00000000000000
    9     -0.11399074747773    -0.05179927966221    -0.00000000000000
   10      0.00079566205781    -0.05578790883458    -0.00000000000000
   11      0.00958412694864     0.11517950232171    -0.00000000000000
   12     -0.07122732926079     0.03073853149758    -0.00000000000000
   13     -0.05762370993231    -0.08745631612417    -0.00000000000000
   14      0.02165829660480    -0.01078229112722    -0.00000000000000
   15     -0.07108505850599     0.10636445401722    -0.00000000000000
   16     -0.02606509974599    -0.04645669208833    -0.00000000000000
 frms,max,avg= 5.3589830E-02 1.1517950E-01   0.000E+00  3.964E-03  0.000E+00 e/A
 length scales=  8.046594396100 71.777133110000 37.777438479000 bohr
              =  4.258074361184 37.982822939743 19.990959441998 angstroms
 prteigrs : about to open file agnr_5o_DS1_EIG
 Fermi (or HOMO) energy (hartree) =  -0.16586   Average Vxc (hartree)=  -0.03062
 Eigenvalues (hartree) for nkpt=   3  k points:
 kpt#   1, nband= 34, wtk=  0.25000, kpt=  0.0000  0.0000  0.0000 (reduced coord)
  -0.88019   -0.85473   -0.80965   -0.74752   -0.68431   -0.67922   -0.66117   -0.65389
  -0.63608   -0.63171   -0.61894   -0.55849   -0.52632   -0.52543   -0.47954   -0.46879
  -0.45769   -0.43646   -0.41292   -0.40787   -0.39393   -0.37247   -0.36111   -0.31184
  -0.30980   -0.29771   -0.24874   -0.24196   -0.23452   -0.22621   -0.19942   -0.16586
  -0.12375   -0.10606
 prteigrs : prtvol=0 or 1, do not print more k-points.


--------------------------------------------------------------------------------
 Components of total free energy (in Hartree) :

    Kinetic energy  =  6.36985707491180E+01
    Hartree energy  =  6.18823866540171E+02
    XC energy       = -3.37792643595920E+01
    Ewald energy    =  5.51624836062280E+02
    PspCore energy  =  4.34545213878212E-02
    Loc. psp. energy= -1.30724898091238E+03
    NL   psp  energy=  1.12901233304942E+01
    >>>>>>>>> Etotal= -9.55473940685165E+01

 Other information on the energy :
    Total energy(eV)= -2.59997681682109E+03 ; Band energy (Ha)=  -3.1199103456E+01
--------------------------------------------------------------------------------

 Cartesian components of stress tensor (hartree/bohr^3)
  sigma(1 1)=  5.97863557E-05  sigma(3 2)=  0.00000000E+00
  sigma(2 2)=  7.36490252E-05  sigma(3 1)=  0.00000000E+00
  sigma(3 3)=  8.94990887E-05  sigma(2 1)=  0.00000000E+00

-Cartesian components of stress tensor (GPa)         [Pressure= -2.1863E+00 GPa]
- sigma(1 1)=  1.75897502E+00  sigma(3 2)=  0.00000000E+00
- sigma(2 2)=  2.16682877E+00  sigma(3 1)=  0.00000000E+00
- sigma(3 3)=  2.63315366E+00  sigma(2 1)=  0.00000000E+00

================================================================================
== DATASET  2 ==================================================================
-   nproc =    1

 mkfilename : getden/=0, take file _DEN from output of DATASET   1.

 Exchange-correlation functional for the present dataset will be:
  LDA: new Teter (4/93) with spin-polarized option - ixc=1
 Citation for XC functional:
  S. Goedecker, M. Teter, J. Huetter, PRB 54, 1703 (1996)

 Real(R)+Recip(G) space primitive vectors, cartesian coordinates (Bohr,Bohr^-1):
 R(1)=  8.0465944  0.0000000  0.0000000  G(1)=  0.1242762  0.0000000  0.0000000
 R(2)=  0.0000000 71.7771331  0.0000000  G(2)=  0.0000000  0.0139320  0.0000000
 R(3)=  0.0000000  0.0000000 37.7774385  G(3)=  0.0000000  0.0000000  0.0264708
 Unit cell volume ucvol=  2.1818793E+04 bohr^3
 Angles (23,13,12)=  9.00000000E+01  9.00000000E+01  9.00000000E+01 degrees

 getcut: wavevector=  0.0000  0.0000  0.0000  ngfft=  30 243 128
         ecut(hartree)=     14.000   => boxcut(ratio)=   2.00171
--------------------------------------------------------------------------------


================================================================================
 prteigrs : about to open file agnr_5o_DS2_EIG
 Non-SCF case, kpt    1 (  0.00000  0.00000  0.00000), residuals and eigenvalues=
  6.24E-12  1.02E-12  7.04E-13  7.49E-13  6.70E-13  9.73E-13  3.40E-13  4.65E-13
  1.58E-13  4.39E-13  6.28E-13  8.60E-13  2.83E-13  4.15E-13  3.63E-13  4.97E-13
  4.01E-13  6.08E-13  3.68E-13  6.62E-13  2.88E-13  5.20E-13  7.18E-13  4.61E-13
  5.09E-13  3.31E-13  2.75E-12  1.43E-11  1.41E-12  1.33E-11  7.76E-11  8.65E-09
  4.44E-05  1.32E-04  3.03E-05  7.22E-03
 -8.8694E-01 -8.6381E-01 -8.1555E-01 -7.5433E-01 -6.9115E-01 -6.8884E-01
 -6.7004E-01 -6.6409E-01 -6.4312E-01 -6.3409E-01 -6.2485E-01 -5.6508E-01
 -5.3403E-01 -5.3096E-01 -4.8656E-01 -4.7826E-01 -4.6432E-01 -4.4244E-01
 -4.1889E-01 -4.1625E-01 -4.0173E-01 -3.7954E-01 -3.6643E-01 -3.1547E-01
 -3.1276E-01 -3.0365E-01 -2.6335E-01 -2.4374E-01 -2.3948E-01 -2.3280E-01
 -2.0817E-01 -1.7374E-01 -1.4965E-01 -1.3115E-01 -1.2247E-01 -8.8266E-02
  prteigrs : nnsclo,ikpt=   10    1 max resid (incl. the buffer)=  7.22099E-03
 Non-SCF case, kpt    2 (  0.05000  0.00000  0.00000), residuals and eigenvalues=
  6.50E-12  1.07E-12  4.61E-13  7.19E-13  3.46E-13  5.40E-13  9.30E-13  8.17E-13
  8.25E-13  3.24E-13  9.17E-13  5.42E-13  2.84E-13  4.08E-13  7.89E-13  7.27E-13
  2.45E-13  2.53E-13  4.48E-13  3.92E-13  5.71E-13  4.57E-13  6.89E-13  2.86E-12
  3.23E-12  3.70E-13  9.21E-11  3.60E-10  6.91E-11  1.93E-11  1.34E-09  1.88E-07
  5.22E-05  3.53E-05  2.49E-04  2.30E-03
 -8.8639E-01 -8.6327E-01 -8.1502E-01 -7.5391E-01 -7.0164E-01 -6.8942E-01
 -6.7634E-01 -6.5732E-01 -6.4066E-01 -6.3376E-01 -6.1693E-01 -5.7019E-01
 -5.3101E-01 -5.2691E-01 -4.9474E-01 -4.7046E-01 -4.6359E-01 -4.4178E-01
 -4.2144E-01 -4.1563E-01 -3.9972E-01 -3.7984E-01 -3.6577E-01 -3.1627E-01
 -3.1356E-01 -3.0307E-01 -2.6370E-01 -2.4420E-01 -2.4367E-01 -2.3308E-01
 -2.1353E-01 -1.8040E-01 -1.4351E-01 -1.2485E-01 -1.2264E-01 -4.6762E-02
  prteigrs : nnsclo,ikpt=   10    2 max resid (incl. the buffer)=  2.30077E-03
 Non-SCF case, kpt    3 (  0.10000  0.00000  0.00000), residuals and eigenvalues=
  7.46E-12  1.19E-12  5.94E-13  3.50E-13  5.21E-13  7.67E-13  6.03E-13  8.93E-13
  2.50E-13  6.04E-13  7.34E-13  4.16E-13  6.59E-13  3.56E-13  4.48E-13  3.92E-13
  8.37E-13  4.64E-13  7.05E-13  8.83E-13  1.62E-13  4.25E-13  9.08E-13  1.04E-12
  2.46E-12  4.60E-13  3.98E-11  2.03E-11  2.44E-10  6.64E-11  7.00E-11  7.55E-08
  5.09E-06  5.96E-05  4.41E-05  2.06E-03
 -8.8474E-01 -8.6168E-01 -8.1350E-01 -7.5272E-01 -7.1760E-01 -6.9992E-01
 -6.8045E-01 -6.6100E-01 -6.3345E-01 -6.1682E-01 -6.0669E-01 -5.8040E-01
 -5.2502E-01 -5.1758E-01 -5.0533E-01 -4.6159E-01 -4.6044E-01 -4.3978E-01
 -4.2658E-01 -4.1369E-01 -3.9583E-01 -3.8079E-01 -3.6396E-01 -3.1835E-01
 -3.1605E-01 -3.0168E-01 -2.6458E-01 -2.5454E-01 -2.4520E-01 -2.3501E-01
 -2.2524E-01 -1.9358E-01 -1.3082E-01 -1.2725E-01 -1.0856E-01 -4.3119E-02
  prteigrs : nnsclo,ikpt=   10    3 max resid (incl. the buffer)=  2.06399E-03
 Non-SCF case, kpt    4 (  0.15000  0.00000  0.00000), residuals and eigenvalues=
  5.41E-12  5.64E-13  4.93E-13  4.04E-13  4.80E-13  4.51E-13  4.02E-13  7.57E-13
  3.53E-13  5.36E-13  7.06E-13  6.34E-13  3.36E-13  2.77E-13  7.14E-13  7.75E-13
  3.64E-13  7.45E-13  5.59E-13  8.98E-13  7.20E-13  7.76E-13  3.31E-13  8.13E-13
  3.51E-12  9.52E-13  2.29E-12  2.54E-11  2.66E-10  7.72E-11  2.59E-11  6.53E-09
  1.53E-05  1.42E-05  1.69E-04  5.87E-03
 -8.8201E-01 -8.5902E-01 -8.1096E-01 -7.5120E-01 -7.3358E-01 -7.1510E-01
 -6.8095E-01 -6.7366E-01 -6.1754E-01 -6.0091E-01 -5.9667E-01 -5.8871E-01
 -5.2237E-01 -5.1104E-01 -5.0611E-01 -4.5821E-01 -4.5209E-01 -4.3652E-01
 -4.3130E-01 -4.1061E-01 -3.9238E-01 -3.8255E-01 -3.6099E-01 -3.2188E-01
 -3.2098E-01 -2.9942E-01 -2.6927E-01 -2.6594E-01 -2.4659E-01 -2.4528E-01
 -2.3240E-01 -2.0831E-01 -1.3358E-01 -1.1625E-01 -1.1379E-01 -4.9795E-02
  prteigrs : nnsclo,ikpt=   10    4 max resid (incl. the buffer)=  5.86911E-03
 Non-SCF case, kpt    5 (  0.20000  0.00000  0.00000), residuals and eigenvalues=
  3.89E-12  7.36E-13  4.12E-13  8.23E-13  3.02E-13  6.64E-13  3.40E-13  6.95E-13
  4.26E-13  5.16E-13  4.40E-13  3.44E-13  5.44E-13  6.10E-13  2.88E-13  8.00E-13
  8.47E-13  2.96E-13  8.02E-13  8.83E-13  5.21E-13  6.71E-13  6.12E-13  2.15E-13
  1.83E-13  2.46E-13  4.79E-13  1.27E-12  8.41E-13  6.52E-12  2.35E-12  3.27E-11
  1.41E-07  5.30E-07  3.55E-05  2.10E-03
 -8.7820E-01 -8.5530E-01 -8.0744E-01 -7.5448E-01 -7.4362E-01 -7.3065E-01
 -6.8803E-01 -6.8010E-01 -6.0515E-01 -6.0443E-01 -5.8236E-01 -5.7711E-01
 -5.3084E-01 -5.0017E-01 -4.9889E-01 -4.5431E-01 -4.4577E-01 -4.3316E-01
 -4.3186E-01 -4.0604E-01 -3.8999E-01 -3.8472E-01 -3.5673E-01 -3.2894E-01
 -3.2624E-01 -2.9673E-01 -2.8534E-01 -2.6733E-01 -2.6144E-01 -2.4797E-01
 -2.3558E-01 -2.2301E-01 -1.4069E-01 -1.2139E-01 -1.0169E-01 -7.7942E-02
  prteigrs : nnsclo,ikpt=   10    5 max resid (incl. the buffer)=  2.09625E-03
 Non-SCF case, kpt    6 (  0.25000  0.00000  0.00000), residuals and eigenvalues=
  1.98E-12  4.50E-13  8.06E-13  4.13E-13  9.52E-13  4.65E-13  3.56E-13  6.25E-13
  1.87E-13  6.37E-13  6.47E-13  2.01E-13  6.13E-13  3.92E-13  3.91E-13  3.54E-13
  6.13E-13  5.93E-13  7.09E-13  9.66E-13  5.64E-13  1.88E-13  3.70E-13  7.60E-13
  7.36E-13  8.60E-13  3.40E-13  3.67E-13  6.00E-13  1.18E-12  5.07E-12  1.58E-12
  1.50E-09  5.62E-09  1.21E-05  8.56E-05
 -8.7329E-01 -8.5048E-01 -8.0296E-01 -7.6815E-01 -7.4581E-01 -7.4187E-01
 -7.0108E-01 -6.8080E-01 -6.1331E-01 -5.9708E-01 -5.6666E-01 -5.5753E-01
 -5.3929E-01 -4.9553E-01 -4.8549E-01 -4.5049E-01 -4.4218E-01 -4.3037E-01
 -4.2590E-01 -4.0023E-01 -3.8923E-01 -3.8732E-01 -3.5142E-01 -3.3969E-01
 -3.3219E-01 -3.0296E-01 -2.9206E-01 -2.7819E-01 -2.6833E-01 -2.4902E-01
 -2.4152E-01 -2.3501E-01 -1.4846E-01 -1.2926E-01 -8.9170E-02 -8.4151E-02
  prteigrs : nnsclo,ikpt=   10    6 max resid (incl. the buffer)=  8.56115E-05
 Non-SCF case, kpt    7 (  0.30000  0.00000  0.00000), residuals and eigenvalues=
  1.13E-12  6.76E-13  9.12E-13  6.24E-13  5.79E-13  8.79E-13  7.43E-13  7.55E-13
  2.85E-13  3.06E-13  1.90E-13  2.44E-13  1.38E-13  2.37E-13  6.74E-13  2.93E-13
  8.68E-13  2.17E-13  8.87E-13  7.55E-13  2.55E-13  5.65E-13  9.78E-13  3.30E-13
  4.82E-13  2.79E-13  4.43E-13  4.69E-13  9.21E-13  1.87E-13  6.18E-13  7.59E-13
  3.99E-10  1.44E-09  1.48E-06  3.20E-05
 -8.6734E-01 -8.4463E-01 -7.9769E-01 -7.8259E-01 -7.5991E-01 -7.3854E-01
 -7.1305E-01 -6.8278E-01 -6.1919E-01 -5.9450E-01 -5.5151E-01 -5.4455E-01
 -5.3687E-01 -4.9488E-01 -4.7006E-01 -4.4607E-01 -4.4163E-01 -4.2388E-01
 -4.1876E-01 -3.9316E-01 -3.9055E-01 -3.9000E-01 -3.5274E-01 -3.4501E-01
 -3.3955E-01 -3.1922E-01 -2.9470E-01 -2.8813E-01 -2.6888E-01 -2.5418E-01
 -2.4969E-01 -2.4064E-01 -1.5613E-01 -1.3704E-01 -8.6085E-02 -7.4625E-02
  prteigrs : nnsclo,ikpt=   10    7 max resid (incl. the buffer)=  3.20334E-05
 Non-SCF case, kpt    8 (  0.35000  0.00000  0.00000), residuals and eigenvalues=
  5.76E-13  7.07E-13  7.13E-13  5.34E-13  5.22E-13  7.51E-13  2.09E-13  6.03E-13
  5.20E-13  5.15E-13  8.50E-13  7.38E-13  4.27E-13  6.74E-13  8.48E-13  5.65E-13
  5.69E-13  3.00E-13  3.23E-13  3.80E-13  2.20E-13  3.20E-13  9.93E-13  9.56E-13
  2.26E-13  3.17E-13  4.62E-13  8.57E-13  6.17E-13  7.20E-13  3.47E-13  9.15E-13
  2.49E-11  2.27E-10  2.69E-06  2.34E-04
 -8.6031E-01 -8.3776E-01 -7.9675E-01 -7.9183E-01 -7.7251E-01 -7.3771E-01
 -7.2090E-01 -6.8679E-01 -6.2170E-01 -5.9586E-01 -5.4850E-01 -5.3695E-01
 -5.1631E-01 -4.9400E-01 -4.5446E-01 -4.4613E-01 -4.3852E-01 -4.1686E-01
 -4.1035E-01 -3.9464E-01 -3.9214E-01 -3.8479E-01 -3.6662E-01 -3.4835E-01
 -3.3748E-01 -3.3511E-01 -3.1038E-01 -2.8430E-01 -2.6890E-01 -2.6671E-01
 -2.4995E-01 -2.4538E-01 -1.6294E-01 -1.4398E-01 -8.4492E-02 -6.4939E-02
  prteigrs : nnsclo,ikpt=   10    8 max resid (incl. the buffer)=  2.33677E-04
 Non-SCF case, kpt    9 (  0.40000  0.00000  0.00000), residuals and eigenvalues=
  6.62E-13  8.02E-13  9.79E-13  8.83E-13  8.63E-13  4.49E-13  9.56E-13  9.77E-13
  7.70E-13  3.81E-13  9.61E-13  5.69E-13  4.07E-13  4.70E-13  8.24E-13  7.90E-13
  3.99E-13  4.94E-13  7.61E-13  5.85E-13  9.65E-13  3.95E-13  8.79E-13  3.89E-13
  4.52E-13  5.16E-13  4.92E-13  6.24E-13  6.94E-13  1.91E-13  8.94E-13  2.96E-13
  1.30E-11  2.32E-10  3.95E-06  3.49E-04
 -8.5226E-01 -8.3003E-01 -8.0946E-01 -7.9141E-01 -7.7835E-01 -7.4433E-01
 -7.1976E-01 -6.9261E-01 -6.2097E-01 -6.0035E-01 -5.4664E-01 -5.3175E-01
 -4.9752E-01 -4.8700E-01 -4.5200E-01 -4.3952E-01 -4.3203E-01 -4.1446E-01
 -4.0065E-01 -3.9858E-01 -3.9500E-01 -3.7870E-01 -3.7532E-01 -3.5808E-01
 -3.5030E-01 -3.3052E-01 -3.2356E-01 -2.8632E-01 -2.7244E-01 -2.6866E-01
 -2.5061E-01 -2.4999E-01 -1.6836E-01 -1.4954E-01 -8.1563E-02 -6.0859E-02
  prteigrs : nnsclo,ikpt=   10    9 max resid (incl. the buffer)=  3.48827E-04
 Non-SCF case, kpt   10 (  0.45000  0.00000  0.00000), residuals and eigenvalues=
  7.13E-13  4.45E-13  3.92E-13  9.52E-13  8.70E-13  3.17E-13  4.38E-13  4.40E-13
  4.20E-13  2.78E-13  9.48E-13  4.82E-13  2.67E-13  2.58E-13  6.27E-13  8.72E-13
  8.03E-13  3.93E-13  7.62E-13  9.13E-13  8.34E-13  9.26E-13  5.04E-13  6.76E-13
  6.42E-13  2.81E-13  4.62E-13  4.45E-13  7.77E-13  1.97E-13  9.08E-13  2.52E-13
  1.35E-12  8.47E-13  5.09E-08  2.14E-06
 -8.4328E-01 -8.2380E-01 -8.1888E-01 -8.0055E-01 -7.7257E-01 -7.5404E-01
 -7.1413E-01 -6.9953E-01 -6.1760E-01 -6.0629E-01 -5.4264E-01 -5.3315E-01
 -4.8406E-01 -4.7134E-01 -4.5941E-01 -4.3418E-01 -4.2456E-01 -4.1590E-01
 -4.0132E-01 -3.9961E-01 -3.8982E-01 -3.8321E-01 -3.6771E-01 -3.6539E-01
 -3.6379E-01 -3.4013E-01 -3.1813E-01 -2.9661E-01 -2.6891E-01 -2.6839E-01
 -2.5605E-01 -2.4991E-01 -1.7182E-01 -1.5312E-01 -7.7566E-02 -6.6244E-02
  prteigrs : nnsclo,ikpt=   10   10 max resid (incl. the buffer)=  2.14412E-06
 Non-SCF case, kpt   11 (  0.50000  0.00000  0.00000), residuals and eigenvalues=
  8.99E-13  5.05E-13  7.55E-13  5.14E-13  3.48E-13  2.94E-13  5.67E-13  8.92E-13
  3.26E-13  2.99E-13  8.73E-13  3.25E-13  6.19E-13  5.84E-13  1.73E-13  2.68E-13
  3.85E-13  2.11E-13  6.87E-13  4.60E-13  7.14E-13  8.40E-13  3.28E-13  1.99E-13
  4.53E-13  4.86E-13  6.39E-13  8.49E-13  7.84E-13  9.66E-13  5.93E-13  9.94E-13
  7.46E-13  9.99E-11  2.91E-06  3.30E-07
 -8.3438E-01 -8.3199E-01 -8.1187E-01 -8.0984E-01 -7.6474E-01 -7.6284E-01
 -7.0834E-01 -7.0564E-01 -6.1322E-01 -6.1156E-01 -5.3799E-01 -5.3725E-01
 -4.7544E-01 -4.6949E-01 -4.5449E-01 -4.4421E-01 -4.1613E-01 -4.1256E-01
 -4.0623E-01 -4.0427E-01 -3.8033E-01 -3.7784E-01 -3.7769E-01 -3.7392E-01
 -3.5385E-01 -3.5189E-01 -3.0790E-01 -3.0760E-01 -2.6828E-01 -2.6535E-01
 -2.5966E-01 -2.4987E-01 -1.7303E-01 -1.5437E-01 -7.3588E-02 -7.0484E-02
  prteigrs : nnsclo,ikpt=   10   11 max resid (incl. the buffer)=  2.91091E-06
 Non-SCF case, kpt   12 (  0.55000  0.00000  0.00000), residuals and eigenvalues=
  9.32E-13  3.51E-13  8.81E-13  9.96E-13  5.56E-13  8.93E-13  5.88E-13  6.05E-13
  4.50E-13  2.69E-13  9.44E-13  2.17E-13  9.45E-13  4.57E-13  3.12E-13  4.77E-13
  7.50E-13  4.60E-13  7.99E-13  1.80E-13  8.09E-13  9.83E-13  2.73E-13  5.81E-13
  6.52E-13  5.48E-13  6.04E-13  9.03E-13  3.73E-13  9.18E-13  8.50E-13  2.69E-13
  2.39E-12  1.44E-11  6.64E-08  2.29E-06
 -8.4328E-01 -8.2380E-01 -8.1888E-01 -8.0055E-01 -7.7257E-01 -7.5404E-01
 -7.1413E-01 -6.9953E-01 -6.1760E-01 -6.0629E-01 -5.4264E-01 -5.3315E-01
 -4.8406E-01 -4.7134E-01 -4.5941E-01 -4.3418E-01 -4.2456E-01 -4.1590E-01
 -4.0132E-01 -3.9961E-01 -3.8982E-01 -3.8321E-01 -3.6771E-01 -3.6539E-01
 -3.6379E-01 -3.4013E-01 -3.1813E-01 -2.9661E-01 -2.6891E-01 -2.6839E-01
 -2.5605E-01 -2.4991E-01 -1.7182E-01 -1.5312E-01 -7.7566E-02 -6.6247E-02
  prteigrs : nnsclo,ikpt=   10   12 max resid (incl. the buffer)=  2.29442E-06
 Non-SCF case, kpt   13 (  0.60000  0.00000  0.00000), residuals and eigenvalues=
  8.34E-13  9.47E-13  5.43E-13  7.31E-13  6.76E-13  2.23E-13  8.99E-13  6.72E-13
  5.47E-13  4.11E-13  5.39E-13  8.71E-13  4.80E-13  3.38E-13  2.31E-13  2.74E-13
  1.91E-13  5.92E-13  3.55E-13  5.23E-13  9.93E-13  5.10E-13  4.88E-13  5.27E-13
  3.62E-13  7.01E-13  9.18E-13  4.67E-13  4.11E-13  9.72E-13  7.84E-13  3.38E-13
  1.60E-11  6.78E-11  6.60E-07  1.35E-03
 -8.5226E-01 -8.3003E-01 -8.0946E-01 -7.9141E-01 -7.7835E-01 -7.4433E-01
 -7.1976E-01 -6.9261E-01 -6.2097E-01 -6.0035E-01 -5.4664E-01 -5.3175E-01
 -4.9752E-01 -4.8700E-01 -4.5200E-01 -4.3952E-01 -4.3203E-01 -4.1446E-01
 -4.0065E-01 -3.9858E-01 -3.9500E-01 -3.7870E-01 -3.7532E-01 -3.5808E-01
 -3.5030E-01 -3.3052E-01 -3.2356E-01 -2.8632E-01 -2.7244E-01 -2.6866E-01
 -2.5061E-01 -2.4999E-01 -1.6836E-01 -1.4954E-01 -8.1574E-02 -5.8576E-02
  prteigrs : nnsclo,ikpt=   10   13 max resid (incl. the buffer)=  1.34747E-03
 Non-SCF case, kpt   14 (  0.65000  0.00000  0.00000), residuals and eigenvalues=
  8.39E-13  5.92E-13  5.15E-13  5.89E-13  7.02E-13  3.92E-13  6.08E-13  5.26E-13
  8.37E-13  8.21E-13  3.00E-13  3.43E-13  3.35E-13  2.99E-13  3.81E-13  7.86E-13
  3.08E-13  1.96E-13  4.94E-13  5.08E-13  2.83E-13  8.75E-13  1.46E-13  5.20E-13
  5.71E-13  9.20E-13  5.64E-13  8.88E-13  7.59E-13  6.43E-13  3.02E-13  6.32E-13
  3.94E-10  1.19E-09  1.32E-06  7.93E-04
 -8.6031E-01 -8.3776E-01 -7.9675E-01 -7.9183E-01 -7.7251E-01 -7.3771E-01
 -7.2090E-01 -6.8679E-01 -6.2170E-01 -5.9586E-01 -5.4850E-01 -5.3695E-01
 -5.1631E-01 -4.9400E-01 -4.5446E-01 -4.4613E-01 -4.3852E-01 -4.1686E-01
 -4.1035E-01 -3.9464E-01 -3.9214E-01 -3.8479E-01 -3.6662E-01 -3.4835E-01
 -3.3748E-01 -3.3511E-01 -3.1038E-01 -2.8430E-01 -2.6890E-01 -2.6671E-01
 -2.4995E-01 -2.4538E-01 -1.6294E-01 -1.4398E-01 -8.4491E-02 -6.3217E-02
  prteigrs : nnsclo,ikpt=   10   14 max resid (incl. the buffer)=  7.93155E-04
 Non-SCF case, kpt   15 (  0.70000  0.00000  0.00000), residuals and eigenvalues=
  1.15E-12  5.95E-13  7.27E-13  5.95E-13  2.56E-13  5.51E-13  7.74E-13  6.77E-13
  6.14E-13  3.51E-13  8.60E-13  7.01E-13  3.26E-13  3.29E-13  3.73E-13  8.65E-13
  3.93E-13  8.34E-13  5.46E-13  2.81E-13  3.56E-13  9.42E-13  8.70E-13  5.72E-13
  1.22E-13  2.79E-13  5.05E-13  5.15E-13  3.91E-13  7.69E-13  7.82E-13  9.22E-13
  9.23E-11  1.67E-10  2.43E-06  3.33E-05
 -8.6734E-01 -8.4463E-01 -7.9769E-01 -7.8259E-01 -7.5991E-01 -7.3854E-01
 -7.1305E-01 -6.8278E-01 -6.1919E-01 -5.9450E-01 -5.5151E-01 -5.4455E-01
 -5.3687E-01 -4.9488E-01 -4.7006E-01 -4.4607E-01 -4.4163E-01 -4.2388E-01
 -4.1876E-01 -3.9316E-01 -3.9055E-01 -3.9000E-01 -3.5274E-01 -3.4501E-01
 -3.3955E-01 -3.1922E-01 -2.9470E-01 -2.8813E-01 -2.6888E-01 -2.5418E-01
 -2.4969E-01 -2.4064E-01 -1.5613E-01 -1.3704E-01 -8.6079E-02 -7.4635E-02
  prteigrs : nnsclo,ikpt=   10   15 max resid (incl. the buffer)=  3.32604E-05
 Non-SCF case, kpt   16 (  0.75000  0.00000  0.00000), residuals and eigenvalues=
  2.20E-12  4.87E-13  5.70E-13  3.17E-13  9.89E-13  8.60E-13  9.24E-13  8.91E-13
  4.95E-13  7.20E-13  5.05E-13  4.28E-13  4.73E-13  2.30E-13  7.92E-13  2.00E-13
  8.25E-13  2.87E-13  9.14E-13  5.80E-13  5.12E-13  4.59E-13  5.69E-13  4.94E-13
  8.58E-13  8.69E-13  7.03E-13  2.00E-13  1.72E-13  1.16E-12  1.81E-13  7.82E-13
  7.54E-09  6.89E-08  1.27E-05  6.62E-04
 -8.7329E-01 -8.5048E-01 -8.0296E-01 -7.6815E-01 -7.4581E-01 -7.4187E-01
 -7.0108E-01 -6.8080E-01 -6.1331E-01 -5.9708E-01 -5.6666E-01 -5.5753E-01
 -5.3929E-01 -4.9553E-01 -4.8549E-01 -4.5049E-01 -4.4218E-01 -4.3037E-01
 -4.2590E-01 -4.0023E-01 -3.8923E-01 -3.8732E-01 -3.5142E-01 -3.3969E-01
 -3.3219E-01 -3.0296E-01 -2.9206E-01 -2.7819E-01 -2.6833E-01 -2.4902E-01
 -2.4152E-01 -2.3501E-01 -1.4846E-01 -1.2926E-01 -8.9166E-02 -8.3292E-02
  prteigrs : nnsclo,ikpt=   10   16 max resid (incl. the buffer)=  6.62011E-04
 Non-SCF case, kpt   17 (  0.80000  0.00000  0.00000), residuals and eigenvalues=
  3.69E-12  8.56E-13  3.85E-13  9.08E-13  6.01E-13  4.25E-13  4.53E-13  3.61E-13
  3.85E-13  4.48E-13  5.96E-13  2.00E-13  7.23E-13  7.23E-13  5.20E-13  7.41E-13
  7.60E-13  2.34E-13  6.69E-13  7.92E-13  6.09E-13  9.21E-13  8.19E-13  3.73E-13
  4.90E-13  8.90E-13  5.98E-13  3.91E-12  8.63E-12  6.83E-12  1.51E-12  1.14E-11
  1.92E-08  1.06E-06  4.51E-05  3.22E-03
 -8.7820E-01 -8.5530E-01 -8.0744E-01 -7.5448E-01 -7.4362E-01 -7.3065E-01
 -6.8803E-01 -6.8010E-01 -6.0515E-01 -6.0443E-01 -5.8236E-01 -5.7711E-01
 -5.3084E-01 -5.0017E-01 -4.9889E-01 -4.5431E-01 -4.4577E-01 -4.3316E-01
 -4.3186E-01 -4.0604E-01 -3.8999E-01 -3.8472E-01 -3.5673E-01 -3.2894E-01
 -3.2624E-01 -2.9673E-01 -2.8534E-01 -2.6733E-01 -2.6144E-01 -2.4797E-01
 -2.3558E-01 -2.2301E-01 -1.4069E-01 -1.2138E-01 -1.0161E-01 -7.6460E-02
  prteigrs : nnsclo,ikpt=   10   17 max resid (incl. the buffer)=  3.21747E-03
 Non-SCF case, kpt   18 (  0.85000  0.00000  0.00000), residuals and eigenvalues=
  5.77E-12  6.55E-13  6.24E-13  4.20E-13  5.09E-13  3.54E-13  7.99E-13  5.08E-13
  3.12E-13  2.94E-13  8.78E-13  3.53E-13  4.78E-13  3.49E-13  9.75E-13  4.89E-13
  8.91E-13  7.77E-13  5.46E-13  4.30E-13  7.31E-13  3.02E-13  3.29E-13  9.69E-13
  9.00E-13  8.58E-13  1.58E-12  1.88E-12  1.38E-11  1.44E-12  8.09E-13  3.47E-11
  7.68E-07  1.73E-05  2.80E-05  3.65E-03
 -8.8201E-01 -8.5902E-01 -8.1096E-01 -7.5120E-01 -7.3358E-01 -7.1510E-01
 -6.8095E-01 -6.7366E-01 -6.1754E-01 -6.0091E-01 -5.9667E-01 -5.8871E-01
 -5.2237E-01 -5.1104E-01 -5.0611E-01 -4.5821E-01 -4.5209E-01 -4.3652E-01
 -4.3130E-01 -4.1061E-01 -3.9238E-01 -3.8255E-01 -3.6099E-01 -3.2188E-01
 -3.2098E-01 -2.9942E-01 -2.6927E-01 -2.6594E-01 -2.4659E-01 -2.4528E-01
 -2.3240E-01 -2.0831E-01 -1.3361E-01 -1.1626E-01 -1.1417E-01 -3.8453E-02
  prteigrs : nnsclo,ikpt=   10   18 max resid (incl. the buffer)=  3.64567E-03
 Non-SCF case, kpt   19 (  0.90000  0.00000  0.00000), residuals and eigenvalues=
  6.07E-12  1.24E-12  6.84E-13  9.77E-13  6.15E-13  5.04E-13  4.77E-13  5.92E-13
  2.93E-13  1.99E-13  3.82E-13  6.00E-13  8.38E-13  2.27E-13  2.67E-13  3.91E-13
  6.95E-13  7.82E-13  3.33E-13  7.99E-13  1.89E-13  4.94E-13  5.39E-13  5.71E-13
  4.90E-13  7.45E-13  1.05E-11  7.01E-12  6.68E-11  5.03E-12  2.87E-11  1.27E-09
  4.44E-06  5.53E-06  8.17E-05  3.56E-04
 -8.8474E-01 -8.6168E-01 -8.1350E-01 -7.5272E-01 -7.1760E-01 -6.9992E-01
 -6.8045E-01 -6.6100E-01 -6.3345E-01 -6.1682E-01 -6.0669E-01 -5.8040E-01
 -5.2502E-01 -5.1758E-01 -5.0533E-01 -4.6159E-01 -4.6044E-01 -4.3978E-01
 -4.2658E-01 -4.1369E-01 -3.9583E-01 -3.8079E-01 -3.6396E-01 -3.1835E-01
 -3.1605E-01 -3.0168E-01 -2.6458E-01 -2.5454E-01 -2.4520E-01 -2.3501E-01
 -2.2524E-01 -1.9358E-01 -1.3083E-01 -1.2774E-01 -1.0974E-01 -1.0785E-01
  prteigrs : nnsclo,ikpt=   10   19 max resid (incl. the buffer)=  3.55994E-04
 Non-SCF case, kpt   20 (  0.95000  0.00000  0.00000), residuals and eigenvalues=
  7.34E-12  1.01E-12  9.72E-13  4.92E-13  6.56E-13  9.20E-13  5.89E-13  5.01E-13
  7.81E-13  3.52E-13  7.22E-13  8.91E-13  3.85E-13  5.82E-13  5.48E-13  7.11E-13
  9.13E-13  4.72E-13  2.97E-13  8.29E-13  5.35E-13  5.24E-13  6.03E-13  2.09E-13
  4.56E-12  4.43E-13  5.77E-11  3.32E-10  4.83E-11  2.00E-11  2.44E-10  1.16E-07
  4.65E-05  5.38E-05  3.15E-04  2.55E-02
 -8.8639E-01 -8.6327E-01 -8.1502E-01 -7.5391E-01 -7.0164E-01 -6.8942E-01
 -6.7634E-01 -6.5732E-01 -6.4066E-01 -6.3376E-01 -6.1693E-01 -5.7019E-01
 -5.3101E-01 -5.2691E-01 -4.9474E-01 -4.7046E-01 -4.6359E-01 -4.4178E-01
 -4.2144E-01 -4.1563E-01 -3.9972E-01 -3.7984E-01 -3.6577E-01 -3.1627E-01
 -3.1356E-01 -3.0307E-01 -2.6370E-01 -2.4420E-01 -2.4367E-01 -2.3308E-01
 -2.1353E-01 -1.8040E-01 -1.4345E-01 -1.2496E-01 -1.2125E-01 -8.8999E-02
  prteigrs : nnsclo,ikpt=   10   20 max resid (incl. the buffer)=  2.54557E-02
 Non-SCF case, kpt   21 (  1.00000  0.00000  0.00000), residuals and eigenvalues=
  5.87E-12  8.86E-13  8.21E-13  8.81E-13  8.09E-13  5.01E-13  4.23E-13  2.79E-13
  3.64E-13  6.07E-13  8.35E-13  9.52E-13  2.03E-13  5.15E-13  7.27E-13  3.53E-13
  9.26E-13  2.68E-13  2.71E-13  6.66E-13  7.58E-13  8.44E-13  4.98E-13  1.83E-13
  1.78E-13  3.74E-13  1.13E-11  6.47E-11  1.08E-11  4.62E-10  3.43E-10  6.74E-08
  1.63E-05  6.47E-06  1.53E-04  1.11E-03
 -8.8694E-01 -8.6381E-01 -8.1555E-01 -7.5433E-01 -6.9115E-01 -6.8884E-01
 -6.7004E-01 -6.6409E-01 -6.4312E-01 -6.3409E-01 -6.2485E-01 -5.6508E-01
 -5.3403E-01 -5.3096E-01 -4.8656E-01 -4.7826E-01 -4.6432E-01 -4.4244E-01
 -4.1889E-01 -4.1625E-01 -4.0173E-01 -3.7954E-01 -3.6643E-01 -3.1547E-01
 -3.1276E-01 -3.0365E-01 -2.6335E-01 -2.4374E-01 -2.3948E-01 -2.3280E-01
 -2.0817E-01 -1.7374E-01 -1.4974E-01 -1.3169E-01 -1.2168E-01 -1.0394E-01
  prteigrs : nnsclo,ikpt=   10   21 max resid (incl. the buffer)=  1.10669E-03


 scprqt:  WARNING -
  nstep=   10 was not enough non-SCF iterations to converge;
  maximum residual=  1.316E-04 exceeds tolwfr=  1.000E-12

 Integrated electronic density in atomic spheres:
 ------------------------------------------------
 Atom  Sphere_radius  Integrated_density
    1        2.00000          4.51780076
    2        2.00000          4.77647984
    3        2.00000          4.78396559
    4        2.00000          4.83690662
    5        2.00000          4.80501178
    6        2.00000          4.77112001
    7        2.00000          4.81853539
    8        2.00000          4.52096936
    9        2.00000          4.51780076
   10        2.00000          4.77647984
   11        2.00000          4.78396559
   12        2.00000          4.83690662
   13        2.00000          4.80501178
   14        2.00000          4.77112001
   15        2.00000          4.81853539
   16        2.00000          4.52096936
================================================================================

 ----iterations are completed or convergence reached----

 Mean square residual over all n,k,spin=   7.7482E-05; max=  7.2210E-03
 reduced coordinates (array xred) for   16 atoms
       0.019267666767      0.002532443749      0.000000000000
       0.503775644368      0.032627716046      0.000000000000
       0.000415536186      0.064867943120      0.000000000000
       0.500890430924      0.097047081920      0.000000000000
       0.000886935353      0.129486167719      0.000000000000
       0.500411520621      0.161665479863      0.000000000000
       0.003772591628      0.193907190044      0.000000000000
       0.519211138731      0.224002030178      0.000000000000
       0.314065666558      0.002532443749      0.000000000000
      -0.170442311042      0.032627716046      0.000000000000
       0.332917797140      0.064867943120      0.000000000000
      -0.167557097599      0.097047081920      0.000000000000
       0.332446397973      0.129486167719      0.000000000000
      -0.167078187295      0.161665479863      0.000000000000
       0.329560741697      0.193907190044      0.000000000000
      -0.185877805405      0.224002030178      0.000000000000

 cartesian coordinates (angstrom) at end:
    1      0.08204315786100     0.09618936253800     0.00000000000000
    2      2.14511415507050     1.23929276150000     0.00000000000000
    3      0.00176938397845     2.46386759800000     0.00000000000000
    4      2.13282870168050     3.68612212940000     0.00000000000000
    5      0.00377663668455     4.91825018160000     0.00000000000000
    6      2.13078946599550     6.14051129710000     0.00000000000000
    7      0.01606397568850     7.36514246620000     0.00000000000000
    8      2.21083963787050     8.50822945040000     0.00000000000000
    9      1.33731496250000     0.09618936253800     0.00000000000000
   10     -0.72575603470950     1.23929276150000     0.00000000000000
   11      1.41758873638255     2.46386759800000     0.00000000000000
   12     -0.71347058131950     3.68612212940000     0.00000000000000
   13      1.41558148367645     4.91825018160000     0.00000000000000
   14     -0.71143134563450     6.14051129710000     0.00000000000000
   15      1.40329414467250     7.36514246620000     0.00000000000000
   16     -0.79148151750950     8.50822945040000     0.00000000000000
 length scales=  8.046594396100 71.777133110000 37.777438479000 bohr
              =  4.258074361184 37.982822939743 19.990959441998 angstroms
 prteigrs : about to open file agnr_5o_DS2_EIG
 Eigenvalues (   eV  ) for nkpt=  21  k points:
 kpt#   1, nband= 36, wtk=  1.00000, kpt=  0.0000  0.0000  0.0000 (reduced coord)
 -24.13476  -23.50552  -22.19230  -20.52640  -18.80714  -18.74417  -18.23264  -18.07086
 -17.50030  -17.25448  -17.00308  -15.37658  -14.53177  -14.44811  -13.24004  -13.01425
 -12.63479  -12.03952  -11.39846  -11.32674  -10.93156  -10.32785   -9.97096   -8.58441
  -8.51061   -8.26266   -7.16613   -6.63239   -6.51653   -6.33474   -5.66473   -4.72771
  -4.07210   -3.56886   -3.33262   -2.40184
 kpt#   2, nband= 36, wtk=  1.00000, kpt=  0.0500  0.0000  0.0000 (reduced coord)
 -24.11979  -23.49089  -22.17794  -20.51490  -19.09255  -18.76008  -18.40405  -17.88663
 -17.43317  -17.24552  -16.78758  -15.51568  -14.44942  -14.33783  -13.46245  -12.80182
 -12.61486  -12.02144  -11.46800  -11.30996  -10.87690  -10.33589   -9.95303   -8.60601
  -8.53229   -8.24685   -7.17561   -6.64495   -6.63060   -6.34237   -5.81047   -4.90889
  -3.90522   -3.39721   -3.33708   -1.27246
 kpt#   3, nband= 36, wtk=  1.00000, kpt=  0.1000  0.0000  0.0000 (reduced coord)
 -24.07493  -23.44759  -22.13634  -20.48257  -19.52696  -19.04570  -18.51587  -17.98673
 -17.23714  -16.78463  -16.50880  -15.79362  -14.28658  -14.08403  -13.75076  -12.56040
 -12.52908  -11.96709  -11.60780  -11.25713  -10.77114  -10.36178   -9.90391   -8.66287
  -8.60027   -8.20902   -7.19953   -6.92633   -6.67214   -6.39501   -6.12905   -5.26762
  -3.55973   -3.46253   -2.95413   -1.17332
 kpt#   4, nband= 36, wtk=  1.00000, kpt=  0.1500  0.0000  0.0000 (reduced coord)
 -24.00063  -23.37520  -22.06747  -20.44109  -19.96171  -19.45896  -18.52970  -18.33120
 -16.80415  -16.35156  -16.23626  -16.01962  -14.21431  -13.90599  -13.77205  -12.46848
 -12.30202  -11.87824  -11.73619  -11.17318  -10.67720  -10.40985   -9.82314   -8.75882
  -8.73433   -8.14751   -7.32723   -7.23647   -6.70996   -6.67428   -6.32385   -5.66845
  -3.63489   -3.16324   -3.09634   -1.35498
 kpt#   5, nband= 36, wtk=  1.00000, kpt=  0.2000  0.0000  0.0000 (reduced coord)
 -23.89716  -23.27381  -21.97148  -20.53040  -20.23501  -19.88192  -18.72233  -18.50640
 -16.46699  -16.44726  -15.84689  -15.70400  -14.44496  -13.61018  -13.57538  -12.36241
 -12.13005  -11.78688  -11.75159  -11.04890  -10.61212  -10.46868   -9.70718   -8.95090
  -8.87755   -8.07433   -7.76442   -7.27431   -7.11402   -6.74767   -6.41053   -6.06830
  -3.82845   -3.30306   -2.76706   -2.12090
 kpt#   6, nband= 36, wtk=  1.00000, kpt=  0.2500  0.0000  0.0000 (reduced coord)
 -23.76342  -23.14283  -21.84954  -20.90245  -20.29464  -20.18744  -19.07735  -18.52538
 -16.68892  -16.24736  -15.41959  -15.17121  -14.67471  -13.48415  -13.21098  -12.25855
 -12.03226  -11.71087  -11.58920  -10.89083  -10.59141  -10.53960   -9.56257   -9.24356
  -9.03926   -8.24402   -7.94740   -7.56994   -7.30173   -6.77629   -6.57209   -6.39501
  -4.03989   -3.51741   -2.42643   -2.28987
 kpt#   7, nband= 36, wtk=  1.00000, kpt=  0.3000  0.0000  0.0000 (reduced coord)
 -23.60163  -22.98360  -21.70616  -21.29547  -20.67818  -20.09679  -19.40318  -18.57945
 -16.84906  -16.17716  -15.00742  -14.81794  -14.60898  -13.46624  -12.79105  -12.13817
 -12.01726  -11.53438  -11.39516  -10.69855  -10.62728  -10.61237   -9.59845   -9.38819
  -9.23956   -8.68638   -8.01928   -7.84038   -7.31649   -6.91671   -6.79435   -6.54822
  -4.24841   -3.72905   -2.34249   -2.03064
 kpt#   8, nband= 36, wtk=  1.00000, kpt=  0.3500  0.0000  0.0000 (reduced coord)
 -23.41024  -22.79671  -21.68067  -21.54670  -21.02116  -20.07409  -19.61673  -18.68848
 -16.91719  -16.21421  -14.92553  -14.61122  -14.04942  -13.44230  -12.36662  -12.13974
 -11.93270  -11.34330  -11.16629  -10.73872  -10.67056  -10.47073   -9.97615   -9.47910
  -9.18335   -9.11877   -8.44599   -7.73615   -7.31724   -7.25750   -6.80143   -6.67721
  -4.43371   -3.91783   -2.29914   -1.76708
 kpt#   9, nband= 36, wtk=  1.00000, kpt=  0.4000  0.0000  0.0000 (reduced coord)
 -23.19107  -22.58617  -22.02662  -21.53524  -21.17986  -20.25419  -19.58568  -18.84695
 -16.89745  -16.33631  -14.87474  -14.46967  -13.53824  -13.25203  -12.29952  -11.95988
 -11.75613  -11.27801  -10.90228  -10.84589  -10.74860  -10.30486  -10.21291   -9.74386
  -9.53217   -8.99383   -8.80440   -7.79122   -7.41334   -7.31062   -6.81933   -6.80245
  -4.58126   -4.06927   -2.21944   -1.65606
 kpt#  10, nband= 36, wtk=  1.00000, kpt=  0.4500  0.0000  0.0000 (reduced coord)
 -22.94676  -22.41676  -22.28298  -21.78394  -21.02280  -20.51836  -19.43244  -19.03523
 -16.80579  -16.49806  -14.76605  -14.50770  -13.17185  -12.82581  -12.50111  -11.81451
 -11.55284  -11.31709  -10.92035  -10.87381  -10.60766  -10.42780  -10.00577   -9.94284
  -9.89925   -9.25548   -8.65685   -8.07122   -7.31730   -7.30319   -6.96735   -6.80030
  -4.67545   -4.16657   -2.11067   -1.80260
 kpt#  11, nband= 36, wtk=  1.00000, kpt=  0.5000  0.0000  0.0000 (reduced coord)
 -22.70468  -22.63964  -22.09201  -22.03673  -20.80960  -20.75785  -19.27486  -19.20146
 -16.68653  -16.64128  -14.63953  -14.61941  -12.93743  -12.77544  -12.36722  -12.08763
 -11.32356  -11.22634  -11.05414  -11.00079  -10.34923  -10.28161  -10.27753  -10.17495
  -9.62874   -9.57539   -8.37839   -8.37031   -7.30034   -7.22055   -7.06579   -6.79939
  -4.70825   -4.20053   -2.00243   -1.91797
 kpt#  12, nband= 36, wtk=  1.00000, kpt=  0.5500  0.0000  0.0000 (reduced coord)
 -22.94676  -22.41676  -22.28298  -21.78394  -21.02280  -20.51836  -19.43244  -19.03523
 -16.80579  -16.49806  -14.76605  -14.50770  -13.17185  -12.82581  -12.50111  -11.81451
 -11.55284  -11.31709  -10.92035  -10.87381  -10.60766  -10.42780  -10.00577   -9.94284
  -9.89925   -9.25548   -8.65685   -8.07122   -7.31730   -7.30319   -6.96735   -6.80030
  -4.67545   -4.16657   -2.11067   -1.80267
 kpt#  13, nband= 36, wtk=  1.00000, kpt=  0.6000  0.0000  0.0000 (reduced coord)
 -23.19107  -22.58617  -22.02662  -21.53524  -21.17986  -20.25419  -19.58568  -18.84695
 -16.89745  -16.33631  -14.87474  -14.46967  -13.53824  -13.25203  -12.29952  -11.95988
 -11.75613  -11.27801  -10.90228  -10.84589  -10.74860  -10.30486  -10.21291   -9.74386
  -9.53217   -8.99383   -8.80440   -7.79122   -7.41334   -7.31062   -6.81933   -6.80245
  -4.58126   -4.06927   -2.21973   -1.59394
 kpt#  14, nband= 36, wtk=  1.00000, kpt=  0.6500  0.0000  0.0000 (reduced coord)
 -23.41024  -22.79671  -21.68067  -21.54670  -21.02116  -20.07409  -19.61673  -18.68848
 -16.91719  -16.21421  -14.92553  -14.61122  -14.04942  -13.44230  -12.36662  -12.13974
 -11.93270  -11.34330  -11.16629  -10.73872  -10.67056  -10.47073   -9.97615   -9.47910
  -9.18335   -9.11877   -8.44599   -7.73615   -7.31724   -7.25750   -6.80143   -6.67721
  -4.43371   -3.91783   -2.29913   -1.72023
 kpt#  15, nband= 36, wtk=  1.00000, kpt=  0.7000  0.0000  0.0000 (reduced coord)
 -23.60163  -22.98360  -21.70616  -21.29547  -20.67818  -20.09679  -19.40318  -18.57945
 -16.84906  -16.17716  -15.00742  -14.81794  -14.60898  -13.46624  -12.79105  -12.13817
 -12.01726  -11.53438  -11.39516  -10.69855  -10.62728  -10.61237   -9.59845   -9.38819
  -9.23956   -8.68638   -8.01928   -7.84038   -7.31649   -6.91671   -6.79435   -6.54822
  -4.24841   -3.72905   -2.34234   -2.03092
 kpt#  16, nband= 36, wtk=  1.00000, kpt=  0.7500  0.0000  0.0000 (reduced coord)
 -23.76342  -23.14283  -21.84954  -20.90245  -20.29464  -20.18744  -19.07735  -18.52538
 -16.68892  -16.24736  -15.41959  -15.17121  -14.67471  -13.48415  -13.21098  -12.25855
 -12.03226  -11.71087  -11.58920  -10.89083  -10.59141  -10.53960   -9.56257   -9.24356
  -9.03926   -8.24402   -7.94740   -7.56994   -7.30173   -6.77629   -6.57209   -6.39501
  -4.03989   -3.51741   -2.42633   -2.26650
 kpt#  17, nband= 36, wtk=  1.00000, kpt=  0.8000  0.0000  0.0000 (reduced coord)
 -23.89716  -23.27381  -21.97148  -20.53040  -20.23501  -19.88192  -18.72233  -18.50640
 -16.46699  -16.44726  -15.84689  -15.70400  -14.44496  -13.61018  -13.57538  -12.36241
 -12.13005  -11.78688  -11.75159  -11.04890  -10.61212  -10.46868   -9.70718   -8.95090
  -8.87755   -8.07433   -7.76442   -7.27431   -7.11402   -6.74767   -6.41053   -6.06830
  -3.82846   -3.30301   -2.76504   -2.08057
 kpt#  18, nband= 36, wtk=  1.00000, kpt=  0.8500  0.0000  0.0000 (reduced coord)
 -24.00063  -23.37520  -22.06747  -20.44109  -19.96171  -19.45896  -18.52970  -18.33120
 -16.80415  -16.35156  -16.23626  -16.01962  -14.21431  -13.90599  -13.77205  -12.46848
 -12.30202  -11.87824  -11.73619  -11.17318  -10.67720  -10.40985   -9.82314   -8.75882
  -8.73433   -8.14751   -7.32723   -7.23647   -6.70996   -6.67428   -6.32385   -5.66845
  -3.63584   -3.16360   -3.10679   -1.04636
 kpt#  19, nband= 36, wtk=  1.00000, kpt=  0.9000  0.0000  0.0000 (reduced coord)
 -24.07493  -23.44759  -22.13634  -20.48257  -19.52696  -19.04570  -18.51587  -17.98673
 -17.23714  -16.78463  -16.50880  -15.79362  -14.28658  -14.08403  -13.75076  -12.56040
 -12.52908  -11.96709  -11.60780  -11.25713  -10.77114  -10.36178   -9.90391   -8.66287
  -8.60027   -8.20902   -7.19953   -6.92633   -6.67214   -6.39501   -6.12905   -5.26762
  -3.56019   -3.47585   -2.98606   -2.93483
 kpt#  20, nband= 36, wtk=  1.00000, kpt=  0.9500  0.0000  0.0000 (reduced coord)
 -24.11979  -23.49089  -22.17794  -20.51490  -19.09255  -18.76008  -18.40405  -17.88663
 -17.43317  -17.24552  -16.78758  -15.51568  -14.44942  -14.33783  -13.46245  -12.80182
 -12.61486  -12.02144  -11.46800  -11.30996  -10.87690  -10.33589   -9.95303   -8.60601
  -8.53229   -8.24685   -7.17561   -6.64495   -6.63060   -6.34237   -5.81047   -4.90889
  -3.90357   -3.40026   -3.29926   -2.42179
 kpt#  21, nband= 36, wtk=  1.00000, kpt=  1.0000  0.0000  0.0000 (reduced coord)
 -24.13476  -23.50552  -22.19230  -20.52640  -18.80714  -18.74417  -18.23264  -18.07086
 -17.50030  -17.25448  -17.00308  -15.37658  -14.53177  -14.44811  -13.24004  -13.01425
 -12.63479  -12.03952  -11.39846  -11.32674  -10.93156  -10.32785   -9.97096   -8.58441
  -8.51061   -8.26266   -7.16613   -6.63239   -6.51653   -6.33474   -5.66473   -4.72770
  -4.07459   -3.58345   -3.31114   -2.82842

== END DATASET(S) ==============================================================
================================================================================
  
 -outvars: echo values of variables after computation  --------
            acell      8.0465943961E+00  7.1777133110E+01  3.7777438479E+01 Bohr
              amu      1.20110000E+01
           diemac      1.00000000E+01
             ecut      1.40000000E+01 Hartree
           enunit1          0
           enunit2          1
           etotal1    -9.5547394069E+01
            fcart1     2.2167672863E-03 -1.0073356930E-03 -2.2012353435E-30
                      -1.5473164794E-05 -1.0849021873E-03 -2.2012353435E-30
                      -1.8638161042E-04  2.2398848893E-03 -2.2012353435E-30
                       1.3851511363E-03  5.9776931514E-04 -2.2012353435E-30
                       1.1206028377E-03 -1.7007547091E-03 -2.2012353435E-30
                      -4.2118684588E-04 -2.0968219589E-04 -2.2012353435E-30
                       1.3823844104E-03  2.0684594786E-03  3.7401097874E-29
                       5.0688552983E-04 -9.0343889771E-04 -2.2012353435E-30
                      -2.2167672863E-03 -1.0073356930E-03 -2.2012353435E-30
                       1.5473164794E-05 -1.0849021873E-03 -2.2012353435E-30
                       1.8638161042E-04  2.2398848893E-03 -2.2012353435E-30
                      -1.3851511363E-03  5.9776931514E-04 -2.2012353435E-30
                      -1.1206028377E-03 -1.7007547091E-03 -2.2012353435E-30
                       4.2118684588E-04 -2.0968219589E-04 -6.5838030651E-30
                      -1.3823844104E-03  2.0684594786E-03 -2.2012353435E-30
                      -5.0688552983E-04 -9.0343889771E-04 -2.2012353435E-30
-          fftalg         112
           getden1          0
           getden2         -1
             iscf1          7
             iscf2         -2
           istwfk1       2    0    3
           istwfk2       2    0    0    0    0    0    0    0    0    0
                         3    0    0    0    0    0    0    0    0    0
                         0
           jdtset        1    2
              kpt1     0.00000000E+00  0.00000000E+00  0.00000000E+00
                       2.50000000E-01  0.00000000E+00  0.00000000E+00
                       5.00000000E-01  0.00000000E+00  0.00000000E+00
              kpt2     0.00000000E+00  0.00000000E+00  0.00000000E+00
                       5.00000000E-02  0.00000000E+00  0.00000000E+00
                       1.00000000E-01  0.00000000E+00  0.00000000E+00
                       1.50000000E-01  0.00000000E+00  0.00000000E+00
                       2.00000000E-01  0.00000000E+00  0.00000000E+00
                       2.50000000E-01  0.00000000E+00  0.00000000E+00
                       3.00000000E-01  0.00000000E+00  0.00000000E+00
                       3.50000000E-01  0.00000000E+00  0.00000000E+00
                       4.00000000E-01  0.00000000E+00  0.00000000E+00
                       4.50000000E-01  0.00000000E+00  0.00000000E+00
                       5.00000000E-01  0.00000000E+00  0.00000000E+00
                       5.50000000E-01  0.00000000E+00  0.00000000E+00
                       6.00000000E-01  0.00000000E+00  0.00000000E+00
                       6.50000000E-01  0.00000000E+00  0.00000000E+00
                       7.00000000E-01  0.00000000E+00  0.00000000E+00
                       7.50000000E-01  0.00000000E+00  0.00000000E+00
                       8.00000000E-01  0.00000000E+00  0.00000000E+00
                       8.50000000E-01  0.00000000E+00  0.00000000E+00
                       9.00000000E-01  0.00000000E+00  0.00000000E+00
                       9.50000000E-01  0.00000000E+00  0.00000000E+00
                       1.00000000E+00  0.00000000E+00  0.00000000E+00
           kptopt1          1
           kptopt2         -1
         kptrlatt        4    0    0      0    1    0      0    0    1
          kptrlen1     3.21863776E+01
          kptrlen2     3.00000000E+01
P           mkmem1          3
P           mkmem2         21
            natom          16
            nband1         34
            nband2         36
           nbdbuf1          0
           nbdbuf2          2
           ndtset           2
            ngfft          30     243     128
             nkpt1          3
             nkpt2         21
            nstep          10
             nsym           4
           ntypat           1
              occ      2.000000  2.000000  2.000000  2.000000  2.000000  2.000000
                       2.000000  2.000000  2.000000  2.000000  2.000000  2.000000
                       2.000000  2.000000  2.000000  2.000000  2.000000  2.000000
                       2.000000  2.000000  2.000000  2.000000  2.000000  2.000000
                       2.000000  2.000000  2.000000  2.000000  2.000000  2.000000
                       2.000000  2.000000  0.000000  0.000000
           shiftk1     0.00000000E+00  0.00000000E+00  0.00000000E+00
           shiftk2     5.00000000E-01  5.00000000E-01  5.00000000E-01
          spgroup          25
           strten1     5.9786355698E-05  7.3649025199E-05  8.9499088696E-05
                       0.0000000000E+00  0.0000000000E+00  0.0000000000E+00
           symrel      1  0  0   0  1  0   0  0  1      -1  0  0   0  1  0   0  0 -1
                       1  0  0   0  1  0   0  0 -1      -1  0  0   0  1  0   0  0  1
            tnons      0.0000000  0.0000000  0.0000000     0.3333333  0.0000000 -0.0000000
                       0.0000000  0.0000000 -0.0000000     0.3333333  0.0000000  0.0000000
           toldfe1     1.00000000E-06 Hartree
           toldfe2     0.00000000E+00 Hartree
           tolwfr1     0.00000000E+00
           tolwfr2     1.00000000E-12
            typat      1  1  1  1  1  1  1  1  1  1  1  1  1  1  1  1
              wtk1       0.25000    0.50000    0.25000
              wtk2       1.00000    1.00000    1.00000    1.00000    1.00000    1.00000
                         1.00000    1.00000    1.00000    1.00000    1.00000    1.00000
                         1.00000    1.00000    1.00000    1.00000    1.00000    1.00000
                         1.00000    1.00000    1.00000
           xangst      8.2043157861E-02  9.6189362538E-02  0.0000000000E+00
                       2.1451141551E+00  1.2392927615E+00  0.0000000000E+00
                       1.7693839784E-03  2.4638675980E+00  0.0000000000E+00
                       2.1328287017E+00  3.6861221294E+00  0.0000000000E+00
                       3.7766366845E-03  4.9182501816E+00  0.0000000000E+00
                       2.1307894660E+00  6.1405112971E+00  0.0000000000E+00
                       1.6063975688E-02  7.3651424662E+00  0.0000000000E+00
                       2.2108396379E+00  8.5082294504E+00  0.0000000000E+00
                       1.3373149625E+00  9.6189362538E-02  0.0000000000E+00
                      -7.2575603471E-01  1.2392927615E+00  0.0000000000E+00
                       1.4175887364E+00  2.4638675980E+00  0.0000000000E+00
                      -7.1347058132E-01  3.6861221294E+00  0.0000000000E+00
                       1.4155814837E+00  4.9182501816E+00  0.0000000000E+00
                      -7.1143134563E-01  6.1405112971E+00  0.0000000000E+00
                       1.4032941447E+00  7.3651424662E+00  0.0000000000E+00
                      -7.9148151751E-01  8.5082294504E+00  0.0000000000E+00
            xcart      1.5503909943E-01  1.8177155209E-01  0.0000000000E+00
                       4.0536782769E+00  2.3419239177E+00  0.0000000000E+00
                       3.3436511432E-03  4.6560349879E+00  0.0000000000E+00
                       4.0304621345E+00  6.9657613169E+00  0.0000000000E+00
                       7.1368090372E-03  9.2941458962E+00  0.0000000000E+00
                       4.0266085376E+00  1.1603884667E+01  0.0000000000E+00
                       3.0356514657E-02  1.3918102191E+01  0.0000000000E+00
                       4.1778814393E+00  1.6078223537E+01  0.0000000000E+00
                       2.5271590325E+00  1.8177155209E-01  0.0000000000E+00
                      -1.3714801449E+00  2.3419239177E+00  0.0000000000E+00
                       2.6788544808E+00  4.6560349879E+00  0.0000000000E+00
                      -1.3482640026E+00  6.9657613169E+00  0.0000000000E+00
                       2.6750613229E+00  9.2941458962E+00  0.0000000000E+00
                      -1.3444104056E+00  1.1603884667E+01  0.0000000000E+00
                       2.6518416173E+00  1.3918102191E+01  0.0000000000E+00
                      -1.4956833073E+00  1.6078223537E+01  0.0000000000E+00
             xred      1.9267666767E-02  2.5324437494E-03  0.0000000000E+00
                       5.0377564437E-01  3.2627716046E-02  0.0000000000E+00
                       4.1553618569E-04  6.4867943120E-02  0.0000000000E+00
                       5.0089043092E-01  9.7047081920E-02  0.0000000000E+00
                       8.8693535251E-04  1.2948616772E-01  0.0000000000E+00
                       5.0041152062E-01  1.6166547986E-01  0.0000000000E+00
                       3.7725916285E-03  1.9390719004E-01  0.0000000000E+00
                       5.1921113873E-01  2.2400203018E-01  0.0000000000E+00
                       3.1406566656E-01  2.5324437494E-03  0.0000000000E+00
                      -1.7044231104E-01  3.2627716046E-02  0.0000000000E+00
                       3.3291779714E-01  6.4867943120E-02  0.0000000000E+00
                      -1.6755709760E-01  9.7047081920E-02  0.0000000000E+00
                       3.3244639797E-01  1.2948616772E-01  0.0000000000E+00
                      -1.6707818730E-01  1.6166547986E-01  0.0000000000E+00
                       3.2956074170E-01  1.9390719004E-01  0.0000000000E+00
                      -1.8587780541E-01  2.2400203018E-01  0.0000000000E+00
            znucl        6.00000

================================================================================

- Total cpu        time (s,m,h):       2503.9       41.73      0.696
- Total wall clock time (s,m,h):       2427.9       40.47      0.674
-
- For major independent code sections, cpu and wall times (sec),
-  as well as % of the time and number of calls for node 0-
-<BEGIN_TIMER mpi_nprocs = 1, omp_nthreads = 1, mpi_rank = 0>
- cpu_time =         2503.9, wall_time =         2427.9
-
- routine                        cpu     %       wall     %      number of calls  Gflops    Speedup Efficacity
-                                                                  (-1=no count)
- fourwf%(pot)                1350.142  53.9   1347.003  55.5          38106      -1.00        1.00       1.00
- projbd                       696.193  27.8    695.191  28.6          58644      -1.00        1.00       1.00
- nonlop(apply)                200.383   8.0    200.421   8.3          38106      -1.00        1.00       1.00
- vtowfk(ssdiag)               119.051   4.8     50.697   2.1             -1      -1.00        2.35       2.35
- fourwf%(den)                  14.268   0.6     13.975   0.6            960      -1.00        1.02       1.02
- others (108)                  22.853   0.9     20.559   0.8             -1      -1.00        1.11       1.11
-<END_TIMER>
-
- subtotal                    2402.890  96.0   2327.846  95.9                                  1.03       1.03

- For major independent code sections, cpu and wall times (sec),
- as well as % of the total time and number of calls 

-<BEGIN_TIMER mpi_nprocs = 1, omp_nthreads = 1, mpi_rank = world>
- cpu_time =        2503.9, wall_time =        2427.9
-
- routine                         cpu     %       wall     %      number of calls Gflops    Speedup Efficacity
-                                                                  (-1=no count)
- fourwf%(pot)                1350.142  53.9   1347.003  55.5          38106      -1.00        1.00       1.00
- projbd                       696.193  27.8    695.191  28.6          58644      -1.00        1.00       1.00
- nonlop(apply)                200.383   8.0    200.421   8.3          38106      -1.00        1.00       1.00
- vtowfk(ssdiag)               119.051   4.8     50.697   2.1             -1      -1.00        2.35       2.35
- fourwf%(den)                  14.268   0.6     13.975   0.6            960      -1.00        1.02       1.02
- others (108)                  22.853   0.9     20.559   0.8             -1      -1.00        1.11       1.11
-<END_TIMER>

- subtotal                    2402.890  96.0   2327.846  95.9                                  1.03       1.03

================================================================================

 Suggested references for the acknowledgment of ABINIT usage.

 The users of ABINIT have little formal obligations with respect to the ABINIT group
 (those specified in the GNU General Public License, http://www.gnu.org/copyleft/gpl.txt).
 However, it is common practice in the scientific literature,
 to acknowledge the efforts of people that have made the research possible.
 In this spirit, please find below suggested citations of work written by ABINIT developers,
 corresponding to implementations inside of ABINIT that you have used in the present run.
 Note also that it will be of great value to readers of publications presenting these results,
 to read papers enabling them to understand the theoretical formalism and details
 of the ABINIT implementation.
 For information on why they are suggested, see also http://www.abinit.org/about/?text=acknowledgments.
-
- [1] Recent developments in the ABINIT software package.
- Computer Phys. Comm. 205, 106 (2016).
- X.Gonze, F.Jollet, F.Abreu Araujo, D.Adams, B.Amadon, T.Applencourt,
- C.Audouze, J.-M.Beuken, J.Bieder, A.Bokhanchuk, E.Bousquet, F.Bruneval
- D.Caliste, M.Cote, F.Dahm, F.Da Pieve, M.Delaveau, M.Di Gennaro,
- B.Dorado, C.Espejo, G.Geneste, L.Genovese, A.Gerossier, M.Giantomassi,
- Y.Gillet, D.R.Hamann, L.He, G.Jomard, J.Laflamme Janssen, S.Le Roux,
- A.Levitt, A.Lherbier, F.Liu, I.Lukacevic, A.Martin, C.Martins,
- M.J.T.Oliveira, S.Ponce, Y.Pouillon, T.Rangel, G.-M.Rignanese,
- A.H.Romero, B.Rousseau, O.Rubel, A.A.Shukri, M.Stankovski, M.Torrent,
- M.J.Van Setten, B.Van Troeye, M.J.Verstraete, D.Waroquier, J.Wiktor,
- B.Xue, A.Zhou, J.W.Zwanziger.
- Comment : the fourth generic paper describing the ABINIT project.
- Note that a version of this paper, that is not formatted for Computer Phys. Comm. 
- is available at http://www.abinit.org/about/ABINIT16.pdf .
- The licence allows the authors to put it on the Web.
-
- [2] ABINIT : First-principles approach of materials and nanosystem properties.
- Computer Phys. Comm. 180, 2582-2615 (2009).
- X. Gonze, B. Amadon, P.-M. Anglade, J.-M. Beuken, F. Bottin, P. Boulanger, F. Bruneval,
- D. Caliste, R. Caracas, M. Cote, T. Deutsch, L. Genovese, Ph. Ghosez, M. Giantomassi
- S. Goedecker, D.R. Hamann, P. Hermet, F. Jollet, G. Jomard, S. Leroux, M. Mancini, S. Mazevet,
- M.J.T. Oliveira, G. Onida, Y. Pouillon, T. Rangel, G.-M. Rignanese, D. Sangalli, R. Shaltaf,
- M. Torrent, M.J. Verstraete, G. Zerah, J.W. Zwanziger
- Comment : the third generic paper describing the ABINIT project.
- Note that a version of this paper, that is not formatted for Computer Phys. Comm. 
- is available at http://www.abinit.org/about/ABINIT_CPC_v10.pdf .
- The licence allows the authors to put it on the Web.
-
- [3] A brief introduction to the ABINIT software package.
- Z. Kristallogr. 220, 558-562 (2005).
- X. Gonze, G.-M. Rignanese, M. Verstraete, J.-M. Beuken, Y. Pouillon, R. Caracas, F. Jollet,
- M. Torrent, G. Zerah, M. Mikami, Ph. Ghosez, M. Veithen, J.-Y. Raty, V. Olevano, F. Bruneval,
- L. Reining, R. Godby, G. Onida, D.R. Hamann, and D.C. Allan.
- Comment : the second generic paper describing the ABINIT project. Note that this paper
- should be cited especially if you are using the GW part of ABINIT, as several authors
- of this part are not in the list of authors of the first or third paper.
- The .pdf of the latter paper is available at http://www.abinit.org/about/zfk_0505-06_558-562.pdf.
- Note that it should not redistributed (Copyright by Oldenburg Wissenshaftverlag,
- the licence allows the authors to put it on the Web).
-
- And optionally:
-
- [4] First-principles computation of material properties : the ABINIT software project. 
- X. Gonze, J.-M. Beuken, R. Caracas, F. Detraux, M. Fuchs, G.-M. Rignanese, L. Sindic,
- M. Verstraete, G. Zerah, F. Jollet, M. Torrent, A. Roy, M. Mikami, Ph. Ghosez, J.-Y. Raty, D.C. Allan.
- Computational Materials Science 25, 478-492 (2002). http://dx.doi.org/10.1016/S0927-0256(02)00325-7
- Comment : the original paper describing the ABINIT project.
-
- Proc.   0 individual time (sec): cpu=       2503.9  wall=       2427.9

================================================================================

 Calculation completed.
.Delivered  29 WARNINGs and   0 COMMENTs to log file.
+Overall time at end (sec) : cpu=       2503.9  wall=       2427.9
