
.Version 8.4.1 of ABINIT 
.(sequential version, prepared for a x86_64_linux_gnu7.0 computer) 

.Copyright (C) 1998-2017 ABINIT group . 
 ABINIT comes with ABSOLUTELY NO WARRANTY.
 It is free software, and you are welcome to redistribute it
 under certain conditions (GNU General Public License,
 see ~abinit/COPYING or http://www.gnu.org/copyleft/gpl.txt).

 ABINIT is a project of the Universite Catholique de Louvain,
 Corning Inc. and other collaborators, see ~abinit/doc/developers/contributors.txt .
 Please read ~abinit/doc/users/acknowledgments.html for suggested
 acknowledgments of the ABINIT effort.
 For more information, see http://www.abinit.org .

.Starting date : Mon 14 Aug 2017.
- ( at 13h18 )
  
- input  file    -> agnr_2.in
- output file    -> agnr_2.out
- root for input  files -> agnr_2i
- root for output files -> agnr_2o


 DATASET    1 : space group Pm m 2 (# 25); Bravais oP (primitive ortho.)
================================================================================
 Values of the parameters that define the memory need for DATASET  1.
     intxc =       0    ionmov =       0      iscf =       7    lmnmax =       1
     lnmax =       1     mgfft =     256  mpssoang =       2    mqgrid =   12604
     natom =      28  nloc_mem =       1    nspden =       1   nspinor =       1
    nsppol =       1      nsym =       4    n1xccc =    2501    ntypat =       1
    occopt =       1   xclevel =       1
-    mband =          60        mffmem =           1         mkmem =           9
       mpw =       42838          nfft =      737280          nkpt =           9
================================================================================
P This job should need less than                     575.958 Mbytes of memory.
  Rough estimation (10% accuracy) of disk space for files :
_ WF disk file :    352.976 Mbytes ; DEN or POT disk file :      5.627 Mbytes.
================================================================================


 DATASET    2 : space group Pm m 2 (# 25); Bravais oP (primitive ortho.)
================================================================================
 Values of the parameters that define the memory need for DATASET  2.
     intxc =       0    ionmov =       0      iscf =       7    lmnmax =       1
     lnmax =       1     mgfft =     320  mpssoang =       2    mqgrid =   15800
     natom =      28  nloc_mem =       1    nspden =       1   nspinor =       1
    nsppol =       1      nsym =       4    n1xccc =    2501    ntypat =       1
    occopt =       1   xclevel =       1
-    mband =          60        mffmem =           1         mkmem =           9
       mpw =       84456          nfft =     1555200          nkpt =           9
================================================================================
P This job should need less than                    1159.281 Mbytes of memory.
  Rough estimation (10% accuracy) of disk space for files :
_ WF disk file :    695.898 Mbytes ; DEN or POT disk file :     11.867 Mbytes.
================================================================================


 DATASET    3 : space group Pm m 2 (# 25); Bravais oP (primitive ortho.)
================================================================================
 Values of the parameters that define the memory need for DATASET  3.
     intxc =       0    ionmov =       0      iscf =       7    lmnmax =       1
     lnmax =       1     mgfft =     375  mpssoang =       2    mqgrid =   18451
     natom =      28  nloc_mem =       1    nspden =       1   nspinor =       1
    nsppol =       1      nsym =       4    n1xccc =    2501    ntypat =       1
    occopt =       1   xclevel =       1
-    mband =          60        mffmem =           1         mkmem =           9
       mpw =      134394          nfft =     2250000          nkpt =           9
================================================================================
P This job should need less than                    1783.805 Mbytes of memory.
  Rough estimation (10% accuracy) of disk space for files :
_ WF disk file :   1107.374 Mbytes ; DEN or POT disk file :     17.168 Mbytes.
================================================================================


 DATASET    4 : space group Pm m 2 (# 25); Bravais oP (primitive ortho.)
================================================================================
 Values of the parameters that define the memory need for DATASET  4.
     intxc =       0    ionmov =       0      iscf =       7    lmnmax =       1
     lnmax =       1     mgfft =     432  mpssoang =       2    mqgrid =   20765
     natom =      28  nloc_mem =       1    nspden =       1   nspinor =       1
    nsppol =       1      nsym =       4    n1xccc =    2501    ntypat =       1
    occopt =       1   xclevel =       1
-    mband =          60        mffmem =           1         mkmem =           9
       mpw =      191372          nfft =     3110400          nkpt =           9
================================================================================
P This job should need less than                    2513.366 Mbytes of memory.
  Rough estimation (10% accuracy) of disk space for files :
_ WF disk file :   1576.859 Mbytes ; DEN or POT disk file :     23.732 Mbytes.
================================================================================


 DATASET    5 : space group Pm m 2 (# 25); Bravais oP (primitive ortho.)
================================================================================
 Values of the parameters that define the memory need for DATASET  5.
     intxc =       0    ionmov =       0      iscf =       7    lmnmax =       1
     lnmax =       1     mgfft =     480  mpssoang =       2    mqgrid =   22847
     natom =      28  nloc_mem =       1    nspden =       1   nspinor =       1
    nsppol =       1      nsym =       4    n1xccc =    2501    ntypat =       1
    occopt =       1   xclevel =       1
-    mband =          60        mffmem =           1         mkmem =           9
       mpw =      254651          nfft =     4320000          nkpt =           9
================================================================================
P This job should need less than                    3393.070 Mbytes of memory.
  Rough estimation (10% accuracy) of disk space for files :
_ WF disk file :   2098.262 Mbytes ; DEN or POT disk file :     32.961 Mbytes.
================================================================================


 DATASET    6 : space group Pm m 2 (# 25); Bravais oP (primitive ortho.)
================================================================================
 Values of the parameters that define the memory need for DATASET  6.
     intxc =       0    ionmov =       0      iscf =       7    lmnmax =       1
     lnmax =       1     mgfft =     500  mpssoang =       2    mqgrid =   24754
     natom =      28  nloc_mem =       1    nspden =       1   nspinor =       1
    nsppol =       1      nsym =       4    n1xccc =    2501    ntypat =       1
    occopt =       1   xclevel =       1
-    mband =          60        mffmem =           1         mkmem =           9
       mpw =      323991          nfft =     5400000          nkpt =           9
================================================================================
P This job should need less than                    4289.206 Mbytes of memory.
  Rough estimation (10% accuracy) of disk space for files :
_ WF disk file :   2669.606 Mbytes ; DEN or POT disk file :     41.201 Mbytes.
================================================================================


 DATASET    7 : space group Pm m 2 (# 25); Bravais oP (primitive ortho.)
================================================================================
 Values of the parameters that define the memory need for DATASET  7.
     intxc =       0    ionmov =       0      iscf =       7    lmnmax =       1
     lnmax =       1     mgfft =     540  mpssoang =       2    mqgrid =   26524
     natom =      28  nloc_mem =       1    nspden =       1   nspinor =       1
    nsppol =       1      nsym =       4    n1xccc =    2501    ntypat =       1
    occopt =       1   xclevel =       1
-    mband =          60        mffmem =           1         mkmem =           9
       mpw =      398492          nfft =     6998400          nkpt =           9
================================================================================
P This job should need less than                    5367.767 Mbytes of memory.
  Rough estimation (10% accuracy) of disk space for files :
_ WF disk file :   3283.475 Mbytes ; DEN or POT disk file :     53.396 Mbytes.
================================================================================


 DATASET    8 : space group Pm m 2 (# 25); Bravais oP (primitive ortho.)
================================================================================
 Values of the parameters that define the memory need for DATASET  8.
     intxc =       0    ionmov =       0      iscf =       7    lmnmax =       1
     lnmax =       1     mgfft =     576  mpssoang =       2    mqgrid =   28183
     natom =      28  nloc_mem =       1    nspden =       1   nspinor =       1
    nsppol =       1      nsym =       4    n1xccc =    2501    ntypat =       1
    occopt =       1   xclevel =       1
-    mband =          60        mffmem =           1         mkmem =           9
       mpw =      477869          nfft =     8294400          nkpt =           9
================================================================================
P This job should need less than                    6409.473 Mbytes of memory.
  Rough estimation (10% accuracy) of disk space for files :
_ WF disk file :   3937.521 Mbytes ; DEN or POT disk file :     63.283 Mbytes.
================================================================================


 DATASET    9 : space group Pm m 2 (# 25); Bravais oP (primitive ortho.)
================================================================================
 Values of the parameters that define the memory need for DATASET  9.
     intxc =       0    ionmov =       0      iscf =       7    lmnmax =       1
     lnmax =       1     mgfft =     600  mpssoang =       2    mqgrid =   29750
     natom =      28  nloc_mem =       1    nspden =       1   nspinor =       1
    nsppol =       1      nsym =       4    n1xccc =    2501    ntypat =       1
    occopt =       1   xclevel =       1
-    mband =          60        mffmem =           1         mkmem =           9
       mpw =      562147          nfft =     9216000          nkpt =           9
================================================================================
P This job should need less than                    7396.495 Mbytes of memory.
  Rough estimation (10% accuracy) of disk space for files :
_ WF disk file :   4631.951 Mbytes ; DEN or POT disk file :     70.315 Mbytes.
================================================================================


 DATASET   10 : space group Pm m 2 (# 25); Bravais oP (primitive ortho.)
================================================================================
 Values of the parameters that define the memory need for DATASET 10.
     intxc =       0    ionmov =       0      iscf =       7    lmnmax =       1
     lnmax =       1     mgfft =     640  mpssoang =       2    mqgrid =   31239
     natom =      28  nloc_mem =       1    nspden =       1   nspinor =       1
    nsppol =       1      nsym =       4    n1xccc =    2501    ntypat =       1
    occopt =       1   xclevel =       1
-    mband =          60        mffmem =           1         mkmem =           9
       mpw =      650846          nfft =    11059200          nkpt =           9
================================================================================
P This job should need less than                    8670.194 Mbytes of memory.
  Rough estimation (10% accuracy) of disk space for files :
_ WF disk file :   5362.808 Mbytes ; DEN or POT disk file :     84.377 Mbytes.
================================================================================

--------------------------------------------------------------------------------
------------- Echo of variables that govern the present computation ------------
--------------------------------------------------------------------------------
-
- outvars: echo of selected default values                                      
-   iomode0 =  0 , fftalg0 =112 , wfoptalg0 =  0
-
- outvars: echo of global parameters not present in the input file              
-  max_nthreads =    0
-
 -outvars: echo values of preprocessed input variables --------
            acell      8.0502333261E+00  1.0582466344E+02  5.6691783987E+01 Bohr
              amu      1.20110000E+01
           diemac      1.00000000E+01
             ecut1     7.00000000E+00 Hartree
             ecut2     1.10000000E+01 Hartree
             ecut3     1.50000000E+01 Hartree
             ecut4     1.90000000E+01 Hartree
             ecut5     2.30000000E+01 Hartree
             ecut6     2.70000000E+01 Hartree
             ecut7     3.10000000E+01 Hartree
             ecut8     3.50000000E+01 Hartree
             ecut9     3.90000000E+01 Hartree
             ecut10    4.30000000E+01 Hartree
-          fftalg         112
           istwfk        2    0    0    0    0    0    0    0    3
           jdtset        1    2    3    4    5    6    7    8    9   10
              kpt      0.00000000E+00  0.00000000E+00  0.00000000E+00
                       6.25000000E-02  0.00000000E+00  0.00000000E+00
                       1.25000000E-01  0.00000000E+00  0.00000000E+00
                       1.87500000E-01  0.00000000E+00  0.00000000E+00
                       2.50000000E-01  0.00000000E+00  0.00000000E+00
                       3.12500000E-01  0.00000000E+00  0.00000000E+00
                       3.75000000E-01  0.00000000E+00  0.00000000E+00
                       4.37500000E-01  0.00000000E+00  0.00000000E+00
                       5.00000000E-01  0.00000000E+00  0.00000000E+00
         kptrlatt       16    0    0      0    1    0      0    0    1
          kptrlen      1.28803733E+02
P           mkmem           9
            natom          28
            nband          60
           ndtset          10
            ngfft1         20     256     144
            ngfft2         27     320     180
            ngfft3         30     375     200
            ngfft4         32     432     225
            ngfft5         36     480     250
            ngfft6         40     500     270
            ngfft7         45     540     288
            ngfft8         45     576     320
            ngfft9         48     600     320
            ngfft10        48     640     360
             nkpt           9
            nstep          10
             nsym           4
           ntypat           1
              occ      2.000000  2.000000  2.000000  2.000000  2.000000  2.000000
                       2.000000  2.000000  2.000000  2.000000  2.000000  2.000000
                       2.000000  2.000000  2.000000  2.000000  2.000000  2.000000
                       2.000000  2.000000  2.000000  2.000000  2.000000  2.000000
                       2.000000  2.000000  2.000000  2.000000  2.000000  2.000000
                       2.000000  2.000000  2.000000  2.000000  2.000000  2.000000
                       2.000000  2.000000  2.000000  2.000000  2.000000  2.000000
                       2.000000  2.000000  2.000000  2.000000  2.000000  2.000000
                       2.000000  2.000000  2.000000  2.000000  2.000000  2.000000
                       2.000000  2.000000  0.000000  0.000000  0.000000  0.000000
          spgroup          25
           symrel      1  0  0   0  1  0   0  0  1      -1  0  0   0  1  0   0  0 -1
                       1  0  0   0  1  0   0  0 -1      -1  0  0   0  1  0   0  0  1
            tnons      0.0000000  0.0000000  0.0000000     0.3333333  0.0000000  0.0000000
                       0.0000000  0.0000000  0.0000000     0.3333333  0.0000000  0.0000000
           toldfe      1.00000000E-06 Hartree
            typat      1  1  1  1  1  1  1  1  1  1  1  1  1  1  1  1  1  1  1  1
                       1  1  1  1  1  1  1  1
              wtk        0.06250    0.12500    0.12500    0.12500    0.12500    0.12500
                         0.12500    0.12500    0.06250
           xangst      0.0000000000E+00  0.0000000000E+00  0.0000000000E+00
                       2.1300000000E+00  1.2297600000E+00  0.0000000000E+00
                       0.0000000000E+00  2.4595100000E+00  0.0000000000E+00
                       2.1300000000E+00  3.6892700000E+00  0.0000000000E+00
                       0.0000000000E+00  4.9190200000E+00  0.0000000000E+00
                       2.1300000000E+00  6.1487800000E+00  0.0000000000E+00
                       0.0000000000E+00  7.3785400000E+00  0.0000000000E+00
                       2.1300000000E+00  8.6082900000E+00  0.0000000000E+00
                       0.0000000000E+00  9.8380500000E+00  0.0000000000E+00
                       2.1300000000E+00  1.1067800000E+01  0.0000000000E+00
                       0.0000000000E+00  1.2297560000E+01  0.0000000000E+00
                       2.1300000000E+00  1.3527320000E+01  0.0000000000E+00
                       0.0000000000E+00  1.4757070000E+01  0.0000000000E+00
                       2.1300000000E+00  1.5986830000E+01  0.0000000000E+00
                       1.4200000000E+00  0.0000000000E+00  0.0000000000E+00
                      -7.1000000000E-01  1.2297600000E+00  0.0000000000E+00
                       1.4200000000E+00  2.4595100000E+00  0.0000000000E+00
                      -7.1000000000E-01  3.6892700000E+00  0.0000000000E+00
                       1.4200000000E+00  4.9190200000E+00  0.0000000000E+00
                      -7.1000000000E-01  6.1487800000E+00  0.0000000000E+00
                       1.4200000000E+00  7.3785400000E+00  0.0000000000E+00
                      -7.1000000000E-01  8.6082900000E+00  0.0000000000E+00
                       1.4200000000E+00  9.8380500000E+00  0.0000000000E+00
                      -7.1000000000E-01  1.1067800000E+01  0.0000000000E+00
                       1.4200000000E+00  1.2297560000E+01  0.0000000000E+00
                      -7.1000000000E-01  1.3527320000E+01  0.0000000000E+00
                       1.4200000000E+00  1.4757070000E+01  0.0000000000E+00
                      -7.1000000000E-01  1.5986830000E+01  0.0000000000E+00
            xcart      0.0000000000E+00  0.0000000000E+00  0.0000000000E+00
                       4.0251166630E+00  2.3239096092E+00  0.0000000000E+00
                       0.0000000000E+00  4.6478003211E+00  0.0000000000E+00
                       4.0251166630E+00  6.9717099303E+00  0.0000000000E+00
                       0.0000000000E+00  9.2956006422E+00  0.0000000000E+00
                       4.0251166630E+00  1.1619510251E+01  0.0000000000E+00
                       0.0000000000E+00  1.3943419861E+01  0.0000000000E+00
                       4.0251166630E+00  1.6267310572E+01  0.0000000000E+00
                       0.0000000000E+00  1.8591220182E+01  0.0000000000E+00
                       4.0251166630E+00  2.0915110894E+01  0.0000000000E+00
                       0.0000000000E+00  2.3239020503E+01  0.0000000000E+00
                       4.0251166630E+00  2.5562930112E+01  0.0000000000E+00
                       0.0000000000E+00  2.7886820824E+01  0.0000000000E+00
                       4.0251166630E+00  3.0210730433E+01  0.0000000000E+00
                       2.6834111087E+00  0.0000000000E+00  0.0000000000E+00
                      -1.3417055543E+00  2.3239096092E+00  0.0000000000E+00
                       2.6834111087E+00  4.6478003211E+00  0.0000000000E+00
                      -1.3417055543E+00  6.9717099303E+00  0.0000000000E+00
                       2.6834111087E+00  9.2956006422E+00  0.0000000000E+00
                      -1.3417055543E+00  1.1619510251E+01  0.0000000000E+00
                       2.6834111087E+00  1.3943419861E+01  0.0000000000E+00
                      -1.3417055543E+00  1.6267310572E+01  0.0000000000E+00
                       2.6834111087E+00  1.8591220182E+01  0.0000000000E+00
                      -1.3417055543E+00  2.0915110894E+01  0.0000000000E+00
                       2.6834111087E+00  2.3239020503E+01  0.0000000000E+00
                      -1.3417055543E+00  2.5562930112E+01  0.0000000000E+00
                       2.6834111087E+00  2.7886820824E+01  0.0000000000E+00
                      -1.3417055543E+00  3.0210730433E+01  0.0000000000E+00
             xred      0.0000000000E+00  0.0000000000E+00  0.0000000000E+00
                       5.0000000000E-01  2.1960000000E-02  0.0000000000E+00
                       0.0000000000E+00  4.3919821429E-02  0.0000000000E+00
                       5.0000000000E-01  6.5879821429E-02  0.0000000000E+00
                       0.0000000000E+00  8.7839642857E-02  0.0000000000E+00
                       5.0000000000E-01  1.0979964286E-01  0.0000000000E+00
                       0.0000000000E+00  1.3175964286E-01  0.0000000000E+00
                       5.0000000000E-01  1.5371946429E-01  0.0000000000E+00
                       0.0000000000E+00  1.7567946429E-01  0.0000000000E+00
                       5.0000000000E-01  1.9763928571E-01  0.0000000000E+00
                       0.0000000000E+00  2.1959928571E-01  0.0000000000E+00
                       5.0000000000E-01  2.4155928571E-01  0.0000000000E+00
                       0.0000000000E+00  2.6351910714E-01  0.0000000000E+00
                       5.0000000000E-01  2.8547910714E-01  0.0000000000E+00
                       3.3333333333E-01  0.0000000000E+00  0.0000000000E+00
                      -1.6666666667E-01  2.1960000000E-02  0.0000000000E+00
                       3.3333333333E-01  4.3919821429E-02  0.0000000000E+00
                      -1.6666666667E-01  6.5879821429E-02  0.0000000000E+00
                       3.3333333333E-01  8.7839642857E-02  0.0000000000E+00
                      -1.6666666667E-01  1.0979964286E-01  0.0000000000E+00
                       3.3333333333E-01  1.3175964286E-01  0.0000000000E+00
                      -1.6666666667E-01  1.5371946429E-01  0.0000000000E+00
                       3.3333333333E-01  1.7567946429E-01  0.0000000000E+00
                      -1.6666666667E-01  1.9763928571E-01  0.0000000000E+00
                       3.3333333333E-01  2.1959928571E-01  0.0000000000E+00
                      -1.6666666667E-01  2.4155928571E-01  0.0000000000E+00
                       3.3333333333E-01  2.6351910714E-01  0.0000000000E+00
                      -1.6666666667E-01  2.8547910714E-01  0.0000000000E+00
            znucl        6.00000

================================================================================

 chkinp: Checking input parameters for consistency, jdtset=   1.

 chkinp: Checking input parameters for consistency, jdtset=   2.

 chkinp: Checking input parameters for consistency, jdtset=   3.

 chkinp: Checking input parameters for consistency, jdtset=   4.

 chkinp: Checking input parameters for consistency, jdtset=   5.

 chkinp: Checking input parameters for consistency, jdtset=   6.

 chkinp: Checking input parameters for consistency, jdtset=   7.

 chkinp: Checking input parameters for consistency, jdtset=   8.

 chkinp: Checking input parameters for consistency, jdtset=   9.

 chkinp: Checking input parameters for consistency, jdtset=  10.

================================================================================
== DATASET  1 ==================================================================
-   nproc =    1

 Exchange-correlation functional for the present dataset will be:
  LDA: new Teter (4/93) with spin-polarized option - ixc=1
 Citation for XC functional:
  S. Goedecker, M. Teter, J. Huetter, PRB 54, 1703 (1996)

 Real(R)+Recip(G) space primitive vectors, cartesian coordinates (Bohr,Bohr^-1):
 R(1)=  8.0502333  0.0000000  0.0000000  G(1)=  0.1242200  0.0000000  0.0000000
 R(2)=  0.0000000105.8246634  0.0000000  G(2)=  0.0000000  0.0094496  0.0000000
 R(3)=  0.0000000  0.0000000 56.6917840  G(3)=  0.0000000  0.0000000  0.0176392
 Unit cell volume ucvol=  4.8296481E+04 bohr^3
 Angles (23,13,12)=  9.00000000E+01  9.00000000E+01  9.00000000E+01 degrees

 getcut: wavevector=  0.0000  0.0000  0.0000  ngfft=  20 256 144
         ecut(hartree)=      7.000   => boxcut(ratio)=   2.03114

--- Pseudopotential description ------------------------------------------------
- pspini: atom type   1  psp file is ./6c.pspnc
- pspatm: opening atomic psp file    ./6c.pspnc
-  Troullier-Martins psp for element  C         Thu Oct 27 17:29:33 EDT 1994
-  6.00000   4.00000    940714                znucl, zion, pspdat
    1    1    1    1      2001   0.00000      pspcod,pspxc,lmax,lloc,mmax,r2well
    0  10.372  24.987    1   1.4850707        l,e99.0,e99.9,nproj,rcpsp
   0.00000000   0.00000000   0.00000000   0.00000000     rms, ekb1, ekb2, epsatm
    1  15.431  21.987    0   1.4850707        l,e99.0,e99.9,nproj,rcpsp
   0.00000000   0.00000000   0.00000000   0.00000000     rms, ekb1, ekb2, epsatm
    0.83985002509544    0.99012430797080    0.51184907750884   rchrg,fchrg,qchrg
 pspatm: epsatm=    0.92590353
         --- l  ekb(1:nproj) -->
             0    4.921466
 pspatm: atomic psp has been read  and splines computed

   2.90363347E+03                                ecore*ucvol(ha*bohr**3)
--------------------------------------------------------------------------------

_setup2: Arith. and geom. avg. npw (full set) are   42718.313   42718.251

================================================================================

     iter   Etot(hartree)      deltaE(h)  residm     vres2
 ETOT  1  -52.802965767896    -5.280E+01 6.336E-02 5.164E+06
 ETOT  2  -119.68461602949    -6.688E+01 1.458E-01 5.976E+05
 ETOT  3  -150.69568479397    -3.101E+01 4.168E-01 5.089E+04
 ETOT  4  -158.84779120206    -8.152E+00 1.451E-01 2.986E+04
 ETOT  5  -160.10518200531    -1.257E+00 7.247E-02 4.386E+04
 ETOT  6  -160.44015802746    -3.350E-01 6.239E-02 3.519E+04
 ETOT  7  -160.61817174680    -1.780E-01 1.115E-02 2.022E+04
 ETOT  8  -160.67816682864    -6.000E-02 9.053E-04 1.853E+04
 ETOT  9  -160.67456103158     3.606E-03 1.541E-03 1.761E+04
 ETOT 10  -160.08669086524     5.879E-01 1.328E-02 1.380E+04

 Cartesian components of stress tensor (hartree/bohr^3)
  sigma(1 1)=  6.14583207E-05  sigma(3 2)=  0.00000000E+00
  sigma(2 2)=  7.89382393E-05  sigma(3 1)=  0.00000000E+00
  sigma(3 3)=  1.69267509E-04  sigma(2 1)=  0.00000000E+00


 scprqt:  WARNING -
  nstep=   10 was not enough SCF cycles to converge;
  maximum energy difference=  5.879E-01 exceeds toldfe=  1.000E-06

 Integrated electronic density in atomic spheres:
 ------------------------------------------------
 Atom  Sphere_radius  Integrated_density
    1        2.00000          3.66283552
    2        2.00000          4.51953592
    3        2.00000          4.64137176
    4        2.00000          4.70862844
    5        2.00000          4.81274351
    6        2.00000          4.80068938
    7        2.00000          4.95561328
    8        2.00000          4.91210966
    9        2.00000          4.81604501
   10        2.00000          4.84665513
   11        2.00000          4.77761628
   12        2.00000          4.68067914
   13        2.00000          4.59605008
   14        2.00000          3.97911127
   15        2.00000          3.78594950
   16        2.00000          4.57225099
   17        2.00000          4.70111329
   18        2.00000          4.82489815
   19        2.00000          4.88249847
   20        2.00000          4.93755938
   21        2.00000          4.94574674
   22        2.00000          5.00832289
   23        2.00000          4.95761420
   24        2.00000          4.90097388
   25        2.00000          4.85506850
   26        2.00000          4.80020573
   27        2.00000          4.67163124
   28        2.00000          4.08739250
================================================================================

 ----iterations are completed or convergence reached----

 Mean square residual over all n,k,spin=   1.8171E-03; max=  1.3276E-02
 reduced coordinates (array xred) for   28 atoms
       0.000000000000      0.000000000000      0.000000000000
       0.500000000000      0.021960000000      0.000000000000
       0.000000000000      0.043919821429      0.000000000000
       0.500000000000      0.065879821429      0.000000000000
       0.000000000000      0.087839642857      0.000000000000
       0.500000000000      0.109799642857      0.000000000000
       0.000000000000      0.131759642857      0.000000000000
       0.500000000000      0.153719464286      0.000000000000
       0.000000000000      0.175679464286      0.000000000000
       0.500000000000      0.197639285714      0.000000000000
       0.000000000000      0.219599285714      0.000000000000
       0.500000000000      0.241559285714      0.000000000000
       0.000000000000      0.263519107143      0.000000000000
       0.500000000000      0.285479107143      0.000000000000
       0.333333333333      0.000000000000      0.000000000000
      -0.166666666667      0.021960000000      0.000000000000
       0.333333333333      0.043919821429      0.000000000000
      -0.166666666667      0.065879821429      0.000000000000
       0.333333333333      0.087839642857      0.000000000000
      -0.166666666667      0.109799642857      0.000000000000
       0.333333333333      0.131759642857      0.000000000000
      -0.166666666667      0.153719464286      0.000000000000
       0.333333333333      0.175679464286      0.000000000000
      -0.166666666667      0.197639285714      0.000000000000
       0.333333333333      0.219599285714      0.000000000000
      -0.166666666667      0.241559285714      0.000000000000
       0.333333333333      0.263519107143      0.000000000000
      -0.166666666667      0.285479107143      0.000000000000
 rms dE/dt=  2.2761E+00; max dE/dt=  1.0990E+01; dE/dt below (all hartree)
    1      -0.127845915906     10.989510241980     -0.000000000000
    2      -0.301280033915     -0.622913819320      0.000000000000
    3      -0.160880680119     -3.248730438054      0.000000000000
    4       0.049128667424     -2.054457756511      0.000000000000
    5       0.041200828878     -0.702326633018      0.000000000000
    6      -0.052644076813     -0.721589969169      0.000000000000
    7      -0.083517335986     -0.465184832120      0.000000000000
    8      -0.079293738642      0.067645205759      0.000000000000
    9      -0.027880041578      0.092325581237      0.000000000000
   10       0.027284316644      0.635420398515      0.000000000000
   11       0.015891394844      0.876975342437      0.000000000000
   12      -0.060451695513      1.617502876459      0.000000000000
   13      -0.107008444455     -0.871112056493      0.000000000000
   14      -0.267029058395     -8.695543393061      0.000000000000
   15       0.127845915906     10.989510241980      0.000000000000
   16       0.301280033915     -0.622913819320      0.000000000000
   17       0.160880680119     -3.248730438054      0.000000000000
   18      -0.049128667424     -2.054457756511      0.000000000000
   19      -0.041200828878     -0.702326633018      0.000000000000
   20       0.052644076813     -0.721589969169      0.000000000000
   21       0.083517335986     -0.465184832120      0.000000000000
   22       0.079293738642      0.067645205759      0.000000000000
   23       0.027880041578      0.092325581237      0.000000000000
   24      -0.027284316644      0.635420398515      0.000000000000
   25      -0.015891394844      0.876975342437     -0.000000000000
   26       0.060451695513      1.617502876459      0.000000000000
   27       0.107008444455     -0.871112056493     -0.000000000000
   28       0.267029058395     -8.695543393061      0.000000000000

 cartesian coordinates (angstrom) at end:
    1      0.00000000000000     0.00000000000000     0.00000000000000
    2      2.13000000000000     1.22976000000000     0.00000000000000
    3      0.00000000000000     2.45951000000000     0.00000000000000
    4      2.13000000000000     3.68927000000000     0.00000000000000
    5      0.00000000000000     4.91902000000000     0.00000000000000
    6      2.13000000000000     6.14878000000000     0.00000000000000
    7      0.00000000000000     7.37854000000000     0.00000000000000
    8      2.13000000000000     8.60829000000000     0.00000000000000
    9      0.00000000000000     9.83805000000000     0.00000000000000
   10      2.13000000000000    11.06780000000000     0.00000000000000
   11      0.00000000000000    12.29756000000000     0.00000000000000
   12      2.13000000000000    13.52732000000000     0.00000000000000
   13      0.00000000000000    14.75707000000000     0.00000000000000
   14      2.13000000000000    15.98683000000000     0.00000000000000
   15      1.42000000000000     0.00000000000000     0.00000000000000
   16     -0.71000000000000     1.22976000000000     0.00000000000000
   17      1.42000000000000     2.45951000000000     0.00000000000000
   18     -0.71000000000000     3.68927000000000     0.00000000000000
   19      1.42000000000000     4.91902000000000     0.00000000000000
   20     -0.71000000000000     6.14878000000000     0.00000000000000
   21      1.42000000000000     7.37854000000000     0.00000000000000
   22     -0.71000000000000     8.60829000000000     0.00000000000000
   23      1.42000000000000     9.83805000000000     0.00000000000000
   24     -0.71000000000000    11.06780000000000     0.00000000000000
   25      1.42000000000000    12.29756000000000     0.00000000000000
   26     -0.71000000000000    13.52732000000000     0.00000000000000
   27      1.42000000000000    14.75707000000000     0.00000000000000
   28     -0.71000000000000    15.98683000000000     0.00000000000000

 cartesian forces (hartree/bohr) at end:
    1      0.01588101993160    -0.10594048247533     0.00000000000000
    2      0.03742500642045     0.00379219876971    -0.00000000000000
    3      0.01998459840879     0.02860509713705    -0.00000000000000
    4     -0.00610276316643     0.01731970635287    -0.00000000000000
    5     -0.00511796704631     0.00454261753898    -0.00000000000000
    6      0.00653944732789     0.00472464822563    -0.00000000000000
    7      0.01037452364463     0.00230172403471    -0.00000000000000
    8      0.00984986837406    -0.00273330296703    -0.00000000000000
    9      0.00346325882106    -0.00296652247065    -0.00000000000000
   10     -0.00338925786852    -0.00809854746005    -0.00000000000000
   11     -0.00197402909955    -0.01038114336980    -0.00000000000000
   12      0.00750930973846    -0.01737882717941    -0.00000000000000
   13      0.01329258918602     0.00613757109693    -0.00000000000000
   14      0.03317035017228     0.08007526276638    -0.00000000000000
   15     -0.01588101993160    -0.10594048247533    -0.00000000000000
   16     -0.03742500642045     0.00379219876971    -0.00000000000000
   17     -0.01998459840879     0.02860509713705    -0.00000000000000
   18      0.00610276316643     0.01731970635287    -0.00000000000000
   19      0.00511796704631     0.00454261753898    -0.00000000000000
   20     -0.00653944732789     0.00472464822563    -0.00000000000000
   21     -0.01037452364463     0.00230172403471    -0.00000000000000
   22     -0.00984986837406    -0.00273330296703    -0.00000000000000
   23     -0.00346325882106    -0.00296652247065    -0.00000000000000
   24      0.00338925786852    -0.00809854746005    -0.00000000000000
   25      0.00197402909955    -0.01038114336980     0.00000000000000
   26     -0.00750930973846    -0.01737882717941    -0.00000000000000
   27     -0.01329258918602     0.00613757109693     0.00000000000000
   28     -0.03317035017228     0.08007526276638    -0.00000000000000
 frms,max,avg= 2.3436551E-02 1.0594048E-01   0.000E+00  2.094E-03  0.000E+00 h/b

 cartesian forces (eV/Angstrom) at end:
    1      0.81663481047954    -5.44767818446108     0.00000000000000
    2      1.92447104512181     0.19500268477374    -0.00000000000000
    3      1.02764928224810     1.47093311260131    -0.00000000000000
    4     -0.31381667319140     0.89061503454787    -0.00000000000000
    5     -0.26317642487107     0.23359076614770    -0.00000000000000
    6      0.33627187373706     0.24295115961934    -0.00000000000000
    7      0.53347941044330     0.11835939876371    -0.00000000000000
    8      0.50650055396587    -0.14055207789428    -0.00000000000000
    9      0.17808791394780    -0.15254470594671    -0.00000000000000
   10     -0.17428263228978    -0.41644401925617    -0.00000000000000
   11     -0.10150864910034    -0.53381981036939    -0.00000000000000
   12      0.38614419990120    -0.89365514942636    -0.00000000000000
   13      0.68353236111185     0.31560656879332    -0.00000000000000
   14      1.70568784266698     4.11763522210701    -0.00000000000000
   15     -0.81663481047954    -5.44767818446108    -0.00000000000000
   16     -1.92447104512181     0.19500268477374    -0.00000000000000
   17     -1.02764928224810     1.47093311260131    -0.00000000000000
   18      0.31381667319140     0.89061503454787    -0.00000000000000
   19      0.26317642487107     0.23359076614770    -0.00000000000000
   20     -0.33627187373706     0.24295115961934    -0.00000000000000
   21     -0.53347941044330     0.11835939876371    -0.00000000000000
   22     -0.50650055396587    -0.14055207789428    -0.00000000000000
   23     -0.17808791394780    -0.15254470594671    -0.00000000000000
   24      0.17428263228978    -0.41644401925617    -0.00000000000000
   25      0.10150864910034    -0.53381981036939     0.00000000000000
   26     -0.38614419990120    -0.89365514942636    -0.00000000000000
   27     -0.68353236111185     0.31560656879332     0.00000000000000
   28     -1.70568784266698     4.11763522210701    -0.00000000000000
 frms,max,avg= 1.2051558E+00 5.4476782E+00   0.000E+00  1.077E-01  0.000E+00 e/A
 length scales=  8.050233326093105.824663441596 56.691783986569 bohr
              =  4.260000000000 56.000000000000 30.000000000000 angstroms
 prteigrs : about to open file agnr_2o_DS1_EIG
 Fermi (or HOMO) energy (hartree) =  -0.15213   Average Vxc (hartree)=  -0.02975
 Eigenvalues (hartree) for nkpt=   9  k points:
 kpt#   1, nband= 60, wtk=  0.06250, kpt=  0.0000  0.0000  0.0000 (reduced coord)
  -1.00955   -0.97125   -0.93455   -0.89783   -0.86235   -0.82674   -0.80423   -0.78816
  -0.76709   -0.74946   -0.74313   -0.73178   -0.71627   -0.69577   -0.69276   -0.66274
  -0.66052   -0.63166   -0.62513   -0.60118   -0.58657   -0.57752   -0.57293   -0.54178
  -0.51437   -0.51002   -0.50939   -0.48999   -0.47031   -0.46277   -0.45571   -0.43348
  -0.43256   -0.42298   -0.40347   -0.39566   -0.37622   -0.37146   -0.36067   -0.34289
  -0.32438   -0.31703   -0.31492   -0.29826   -0.28558   -0.28366   -0.28301   -0.25648
  -0.25446   -0.23948   -0.21803   -0.19712   -0.18690   -0.17926   -0.16610   -0.15512
  -0.14756   -0.14169   -0.11711   -0.08987
 prteigrs : prtvol=0 or 1, do not print more k-points.


--------------------------------------------------------------------------------
 Components of total free energy (in Hartree) :

    Kinetic energy  =  9.41163953618835E+01
    Hartree energy  =  1.71921626757220E+03
    XC energy       = -5.74511502077984E+01
    Ewald energy    =  1.60013806305516E+03
    PspCore energy  =  6.01210152818519E-02
    Loc. psp. energy= -3.54043882148704E+03
    NL   psp  energy=  2.42724338250737E+01
    >>>>>>>>> Etotal= -1.60086690865242E+02

 Other information on the energy :
    Total energy(eV)= -4.35618039601126E+03 ; Band energy (Ha)=  -5.7360801960E+01
--------------------------------------------------------------------------------

 Cartesian components of stress tensor (hartree/bohr^3)
  sigma(1 1)=  6.14583207E-05  sigma(3 2)=  0.00000000E+00
  sigma(2 2)=  7.89382393E-05  sigma(3 1)=  0.00000000E+00
  sigma(3 3)=  1.69267509E-04  sigma(2 1)=  0.00000000E+00

-Cartesian components of stress tensor (GPa)         [Pressure= -3.0369E+00 GPa]
- sigma(1 1)=  1.80816592E+00  sigma(3 2)=  0.00000000E+00
- sigma(2 2)=  2.32244279E+00  sigma(3 1)=  0.00000000E+00
- sigma(3 3)=  4.98002120E+00  sigma(2 1)=  0.00000000E+00

================================================================================
== DATASET  2 ==================================================================
-   nproc =    1

 Exchange-correlation functional for the present dataset will be:
  LDA: new Teter (4/93) with spin-polarized option - ixc=1
 Citation for XC functional:
  S. Goedecker, M. Teter, J. Huetter, PRB 54, 1703 (1996)

 Real(R)+Recip(G) space primitive vectors, cartesian coordinates (Bohr,Bohr^-1):
 R(1)=  8.0502333  0.0000000  0.0000000  G(1)=  0.1242200  0.0000000  0.0000000
 R(2)=  0.0000000105.8246634  0.0000000  G(2)=  0.0000000  0.0094496  0.0000000
 R(3)=  0.0000000  0.0000000 56.6917840  G(3)=  0.0000000  0.0000000  0.0176392
 Unit cell volume ucvol=  4.8296481E+04 bohr^3
 Angles (23,13,12)=  9.00000000E+01  9.00000000E+01  9.00000000E+01 degrees

 getcut: wavevector=  0.0000  0.0000  0.0000  ngfft=  27 320 180
         ecut(hartree)=     11.000   => boxcut(ratio)=   2.02536

--- Pseudopotential description ------------------------------------------------
- pspini: atom type   1  psp file is ./6c.pspnc
- pspatm: opening atomic psp file    ./6c.pspnc
-  Troullier-Martins psp for element  C         Thu Oct 27 17:29:33 EDT 1994
-  6.00000   4.00000    940714                znucl, zion, pspdat
    1    1    1    1      2001   0.00000      pspcod,pspxc,lmax,lloc,mmax,r2well
    0  10.372  24.987    1   1.4850707        l,e99.0,e99.9,nproj,rcpsp
   0.00000000   0.00000000   0.00000000   0.00000000     rms, ekb1, ekb2, epsatm
    1  15.431  21.987    0   1.4850707        l,e99.0,e99.9,nproj,rcpsp
   0.00000000   0.00000000   0.00000000   0.00000000     rms, ekb1, ekb2, epsatm
    0.83985002509544    0.99012430797080    0.51184907750884   rchrg,fchrg,qchrg
 pspatm: epsatm=    0.92590353
         --- l  ekb(1:nproj) -->
             0    4.921466
 pspatm: atomic psp has been read  and splines computed

--------------------------------------------------------------------------------

_setup2: Arith. and geom. avg. npw (full set) are   84164.813   84164.381

================================================================================

     iter   Etot(hartree)      deltaE(h)  residm     vres2
 ETOT  1  -93.569779707866    -9.357E+01 9.612E-02 7.028E+06
 ETOT  2  -133.59766878218    -4.003E+01 1.298E-01 9.965E+05
 ETOT  3  -158.31091258454    -2.471E+01 3.305E-01 9.536E+04
 ETOT  4  -164.05985212527    -5.749E+00 1.349E-01 4.963E+04
 ETOT  5  -165.52989462443    -1.470E+00 7.365E-02 5.785E+04
 ETOT  6  -165.73616951254    -2.063E-01 4.671E-02 5.229E+04
 ETOT  7  -165.82803180137    -9.186E-02 1.198E-02 3.678E+04
 ETOT  8  -165.89425820598    -6.623E-02 2.816E-03 2.448E+04
 ETOT  9  -165.91078722011    -1.653E-02 1.731E-03 2.126E+04
 ETOT 10  -164.52517665586     1.386E+00 1.008E-02 1.081E+05

 Cartesian components of stress tensor (hartree/bohr^3)
  sigma(1 1)=  5.25275147E-05  sigma(3 2)=  0.00000000E+00
  sigma(2 2)=  9.20495593E-05  sigma(3 1)=  0.00000000E+00
  sigma(3 3)=  1.14401415E-04  sigma(2 1)=  0.00000000E+00


 scprqt:  WARNING -
  nstep=   10 was not enough SCF cycles to converge;
  maximum energy difference=  1.386E+00 exceeds toldfe=  1.000E-06

 Integrated electronic density in atomic spheres:
 ------------------------------------------------
 Atom  Sphere_radius  Integrated_density
    1        2.00000          4.27147113
    2        2.00000          4.83081034
    3        2.00000          4.76290677
    4        2.00000          4.79440888
    5        2.00000          4.80038836
    6        2.00000          4.83208369
    7        2.00000          4.81829183
    8        2.00000          4.85452259
    9        2.00000          4.79913696
   10        2.00000          4.74293545
   11        2.00000          4.76312695
   12        2.00000          4.76990312
   13        2.00000          4.58338354
   14        2.00000          3.51017257
   15        2.00000          4.27147113
   16        2.00000          4.83081034
   17        2.00000          4.76290677
   18        2.00000          4.79440888
   19        2.00000          4.80038836
   20        2.00000          4.83208369
   21        2.00000          4.81829183
   22        2.00000          4.85452259
   23        2.00000          4.79913696
   24        2.00000          4.74293545
   25        2.00000          4.76312695
   26        2.00000          4.76990312
   27        2.00000          4.58338354
   28        2.00000          3.51017257
================================================================================

 ----iterations are completed or convergence reached----

 Mean square residual over all n,k,spin=   1.6333E-03; max=  1.0077E-02
 reduced coordinates (array xred) for   28 atoms
       0.000000000000      0.000000000000      0.000000000000
       0.500000000000      0.021960000000      0.000000000000
       0.000000000000      0.043919821429      0.000000000000
       0.500000000000      0.065879821429      0.000000000000
       0.000000000000      0.087839642857      0.000000000000
       0.500000000000      0.109799642857      0.000000000000
       0.000000000000      0.131759642857      0.000000000000
       0.500000000000      0.153719464286      0.000000000000
       0.000000000000      0.175679464286      0.000000000000
       0.500000000000      0.197639285714      0.000000000000
       0.000000000000      0.219599285714      0.000000000000
       0.500000000000      0.241559285714      0.000000000000
       0.000000000000      0.263519107143      0.000000000000
       0.500000000000      0.285479107143      0.000000000000
       0.333333333333      0.000000000000      0.000000000000
      -0.166666666667      0.021960000000      0.000000000000
       0.333333333333      0.043919821429      0.000000000000
      -0.166666666667      0.065879821429      0.000000000000
       0.333333333333      0.087839642857      0.000000000000
      -0.166666666667      0.109799642857      0.000000000000
       0.333333333333      0.131759642857      0.000000000000
      -0.166666666667      0.153719464286      0.000000000000
       0.333333333333      0.175679464286      0.000000000000
      -0.166666666667      0.197639285714      0.000000000000
       0.333333333333      0.219599285714      0.000000000000
      -0.166666666667      0.241559285714      0.000000000000
       0.333333333333      0.263519107143      0.000000000000
      -0.166666666667      0.285479107143      0.000000000000
 rms dE/dt=  1.0186E+00; max dE/dt=  2.5596E+00; dE/dt below (all hartree)
    1      -0.301595791168      2.559604259134      0.000000000000
    2       0.124686194087      0.710272454859      0.000000000000
    3       0.012462554953      0.492406213030      0.000000000000
    4       0.005825603622     -0.084151745220      0.000000000000
    5      -0.009087364745      0.170504116685      0.000000000000
    6      -0.000994634150      0.457216245275      0.000000000000
    7       0.046043565666      0.089059869022      0.000000000000
    8       0.047275963858      0.677928106955      0.000000000000
    9       0.025898686756      1.225102418842      0.000000000000
   10       0.067785008178      0.955528871389      0.000000000000
   11       0.039501683048      0.908050415385      0.000000000000
   12      -0.134448449094      1.637244544092      0.000000000000
   13      -0.208824039972      2.067705349148      0.000000000000
   14      -0.115179691885     -5.017630861669      0.000000000000
   15       0.301595791168      2.559604259134      0.000000000000
   16      -0.124686194087      0.710272454859      0.000000000000
   17      -0.012462554953      0.492406213030      0.000000000000
   18      -0.005825603622     -0.084151745220     -0.000000000000
   19       0.009087364745      0.170504116685      0.000000000000
   20       0.000994634150      0.457216245275      0.000000000000
   21      -0.046043565666      0.089059869022      0.000000000000
   22      -0.047275963858      0.677928106955      0.000000000000
   23      -0.025898686756      1.225102418842      0.000000000000
   24      -0.067785008178      0.955528871389      0.000000000000
   25      -0.039501683048      0.908050415385      0.000000000000
   26       0.134448449094      1.637244544092      0.000000000000
   27       0.208824039972      2.067705349148      0.000000000000
   28       0.115179691885     -5.017630861669      0.000000000000

 cartesian coordinates (angstrom) at end:
    1      0.00000000000000     0.00000000000000     0.00000000000000
    2      2.13000000000000     1.22976000000000     0.00000000000000
    3      0.00000000000000     2.45951000000000     0.00000000000000
    4      2.13000000000000     3.68927000000000     0.00000000000000
    5      0.00000000000000     4.91902000000000     0.00000000000000
    6      2.13000000000000     6.14878000000000     0.00000000000000
    7      0.00000000000000     7.37854000000000     0.00000000000000
    8      2.13000000000000     8.60829000000000     0.00000000000000
    9      0.00000000000000     9.83805000000000     0.00000000000000
   10      2.13000000000000    11.06780000000000     0.00000000000000
   11      0.00000000000000    12.29756000000000     0.00000000000000
   12      2.13000000000000    13.52732000000000     0.00000000000000
   13      0.00000000000000    14.75707000000000     0.00000000000000
   14      2.13000000000000    15.98683000000000     0.00000000000000
   15      1.42000000000000     0.00000000000000     0.00000000000000
   16     -0.71000000000000     1.22976000000000     0.00000000000000
   17      1.42000000000000     2.45951000000000     0.00000000000000
   18     -0.71000000000000     3.68927000000000     0.00000000000000
   19      1.42000000000000     4.91902000000000     0.00000000000000
   20     -0.71000000000000     6.14878000000000     0.00000000000000
   21      1.42000000000000     7.37854000000000     0.00000000000000
   22     -0.71000000000000     8.60829000000000     0.00000000000000
   23      1.42000000000000     9.83805000000000     0.00000000000000
   24     -0.71000000000000    11.06780000000000     0.00000000000000
   25      1.42000000000000    12.29756000000000     0.00000000000000
   26     -0.71000000000000    13.52732000000000     0.00000000000000
   27      1.42000000000000    14.75707000000000     0.00000000000000
   28     -0.71000000000000    15.98683000000000     0.00000000000000

 cartesian forces (hartree/bohr) at end:
    1      0.03746422978698    -0.01956445044384    -0.00000000000000
    2     -0.01548851928091    -0.00208901755201    -0.00000000000000
    3     -0.00154809860145    -0.00003027023599    -0.00000000000000
    4     -0.00072365649368     0.00541796781647    -0.00000000000000
    5      0.00112883246690     0.00301157356372    -0.00000000000000
    6      0.00012355345616     0.00030226063736    -0.00000000000000
    7     -0.00571953181990     0.00378118855718    -0.00000000000000
    8     -0.00587262032580    -0.00178337662811    -0.00000000000000
    9     -0.00321713492111    -0.00695395118127    -0.00000000000000
   10     -0.00842025385253    -0.00440659087143    -0.00000000000000
   11     -0.00490689914781    -0.00395793878542    -0.00000000000000
   12      0.01670118661758    -0.01084852652738    -0.00000000000000
   13      0.02594012266644    -0.01491620594215    -0.00000000000000
   14      0.01430762155819     0.05203733759289    -0.00000000000000
   15     -0.03746422978698    -0.01956445044384    -0.00000000000000
   16      0.01548851928091    -0.00208901755201    -0.00000000000000
   17      0.00154809860145    -0.00003027023599    -0.00000000000000
   18      0.00072365649368     0.00541796781647     0.00000000000000
   19     -0.00112883246690     0.00301157356372    -0.00000000000000
   20     -0.00012355345616     0.00030226063736    -0.00000000000000
   21      0.00571953181990     0.00378118855718    -0.00000000000000
   22      0.00587262032580    -0.00178337662811    -0.00000000000000
   23      0.00321713492111    -0.00695395118127    -0.00000000000000
   24      0.00842025385253    -0.00440659087143    -0.00000000000000
   25      0.00490689914781    -0.00395793878542    -0.00000000000000
   26     -0.01670118661758    -0.01084852652738    -0.00000000000000
   27     -0.02594012266644    -0.01491620594215    -0.00000000000000
   28     -0.01430762155819     0.05203733759289    -0.00000000000000
 frms,max,avg= 1.2489390E-02 5.2037338E-02   0.000E+00 -4.623E-03  0.000E+00 h/b

 cartesian forces (eV/Angstrom) at end:
    1      1.92648799155418    -1.00604440704434    -0.00000000000000
    2     -0.79645161721671    -0.10742159256892    -0.00000000000000
    3     -0.07960642411167    -0.00155655798770    -0.00000000000000
    4     -0.03721190994746     0.27860308343172    -0.00000000000000
    5      0.05804689444644     0.15486132610162    -0.00000000000000
    6      0.00635337363011     0.01554286559469    -0.00000000000000
    7     -0.29411012667264     0.19443651692884    -0.00000000000000
    8     -0.30198225349720    -0.09170490566640    -0.00000000000000
    9     -0.16543171521103    -0.35758651707874    -0.00000000000000
   10     -0.43298682569940    -0.22659599425318    -0.00000000000000
   11     -0.25232287805674    -0.20352537833506    -0.00000000000000
   12      0.85880947363417    -0.55785361663355    -0.00000000000000
   13      1.33389462696799    -0.76702208454553    -0.00000000000000
   14      0.73572741989564     2.67586726205655    -0.00000000000000
   15     -1.92648799155418    -1.00604440704434    -0.00000000000000
   16      0.79645161721671    -0.10742159256892    -0.00000000000000
   17      0.07960642411167    -0.00155655798770    -0.00000000000000
   18      0.03721190994746     0.27860308343172     0.00000000000000
   19     -0.05804689444644     0.15486132610162    -0.00000000000000
   20     -0.00635337363011     0.01554286559469    -0.00000000000000
   21      0.29411012667264     0.19443651692884    -0.00000000000000
   22      0.30198225349720    -0.09170490566640    -0.00000000000000
   23      0.16543171521103    -0.35758651707874    -0.00000000000000
   24      0.43298682569940    -0.22659599425318    -0.00000000000000
   25      0.25232287805674    -0.20352537833506    -0.00000000000000
   26     -0.85880947363417    -0.55785361663355    -0.00000000000000
   27     -1.33389462696799    -0.76702208454553    -0.00000000000000
   28     -0.73572741989564     2.67586726205655    -0.00000000000000
 frms,max,avg= 6.4223019E-01 2.6758673E+00   0.000E+00 -2.377E-01  0.000E+00 e/A
 length scales=  8.050233326093105.824663441596 56.691783986569 bohr
              =  4.260000000000 56.000000000000 30.000000000000 angstroms
 prteigrs : about to open file agnr_2o_DS2_EIG
 Fermi (or HOMO) energy (hartree) =  -0.15877   Average Vxc (hartree)=  -0.02640
 Eigenvalues (hartree) for nkpt=   9  k points:
 kpt#   1, nband= 60, wtk=  0.06250, kpt=  0.0000  0.0000  0.0000 (reduced coord)
  -0.93941   -0.91569   -0.88600   -0.85967   -0.82804   -0.79120   -0.75199   -0.74035
  -0.71906   -0.71065   -0.69669   -0.69125   -0.68037   -0.66633   -0.66466   -0.64961
  -0.63817   -0.63159   -0.60437   -0.58736   -0.57593   -0.56732   -0.56363   -0.52877
  -0.52653   -0.51809   -0.48335   -0.48255   -0.48233   -0.47673   -0.45615   -0.44469
  -0.43597   -0.43295   -0.42550   -0.40430   -0.39784   -0.38903   -0.37585   -0.36308
  -0.34802   -0.34456   -0.32571   -0.32494   -0.30287   -0.28507   -0.28483   -0.28149
  -0.25452   -0.24947   -0.24301   -0.22306   -0.19991   -0.19419   -0.17807   -0.16195
  -0.15472   -0.14862   -0.12592   -0.07870
 prteigrs : prtvol=0 or 1, do not print more k-points.


--------------------------------------------------------------------------------
 Components of total free energy (in Hartree) :

    Kinetic energy  =  1.06206172107972E+02
    Hartree energy  =  1.72298795532627E+03
    XC energy       = -5.85982998922884E+01
    Ewald energy    =  1.60013806305516E+03
    PspCore energy  =  6.01210152818519E-02
    Loc. psp. energy= -3.55599420506073E+03
    NL   psp  energy=  2.06750167924825E+01
    >>>>>>>>> Etotal= -1.64525176655860E+02

 Other information on the energy :
    Total energy(eV)= -4.47695773661691E+03 ; Band energy (Ha)=  -5.6685810338E+01
--------------------------------------------------------------------------------

 Cartesian components of stress tensor (hartree/bohr^3)
  sigma(1 1)=  5.25275147E-05  sigma(3 2)=  0.00000000E+00
  sigma(2 2)=  9.20495593E-05  sigma(3 1)=  0.00000000E+00
  sigma(3 3)=  1.14401415E-04  sigma(2 1)=  0.00000000E+00

-Cartesian components of stress tensor (GPa)         [Pressure= -2.5398E+00 GPa]
- sigma(1 1)=  1.54541258E+00  sigma(3 2)=  0.00000000E+00
- sigma(2 2)=  2.70819108E+00  sigma(3 1)=  0.00000000E+00
- sigma(3 3)=  3.36580526E+00  sigma(2 1)=  0.00000000E+00

================================================================================
== DATASET  3 ==================================================================
-   nproc =    1

 Exchange-correlation functional for the present dataset will be:
  LDA: new Teter (4/93) with spin-polarized option - ixc=1
 Citation for XC functional:
  S. Goedecker, M. Teter, J. Huetter, PRB 54, 1703 (1996)

 Real(R)+Recip(G) space primitive vectors, cartesian coordinates (Bohr,Bohr^-1):
 R(1)=  8.0502333  0.0000000  0.0000000  G(1)=  0.1242200  0.0000000  0.0000000
 R(2)=  0.0000000105.8246634  0.0000000  G(2)=  0.0000000  0.0094496  0.0000000
 R(3)=  0.0000000  0.0000000 56.6917840  G(3)=  0.0000000  0.0000000  0.0176392
 Unit cell volume ucvol=  4.8296481E+04 bohr^3
 Angles (23,13,12)=  9.00000000E+01  9.00000000E+01  9.00000000E+01 degrees

 getcut: wavevector=  0.0000  0.0000  0.0000  ngfft=  30 375 200
         ecut(hartree)=     15.000   => boxcut(ratio)=   2.02348

--- Pseudopotential description ------------------------------------------------
- pspini: atom type   1  psp file is ./6c.pspnc
- pspatm: opening atomic psp file    ./6c.pspnc
-  Troullier-Martins psp for element  C         Thu Oct 27 17:29:33 EDT 1994
-  6.00000   4.00000    940714                znucl, zion, pspdat
    1    1    1    1      2001   0.00000      pspcod,pspxc,lmax,lloc,mmax,r2well
    0  10.372  24.987    1   1.4850707        l,e99.0,e99.9,nproj,rcpsp
   0.00000000   0.00000000   0.00000000   0.00000000     rms, ekb1, ekb2, epsatm
    1  15.431  21.987    0   1.4850707        l,e99.0,e99.9,nproj,rcpsp
   0.00000000   0.00000000   0.00000000   0.00000000     rms, ekb1, ekb2, epsatm
    0.83985002509544    0.99012430797080    0.51184907750884   rchrg,fchrg,qchrg
 pspatm: epsatm=    0.92590353
         --- l  ekb(1:nproj) -->
             0    4.921466
 pspatm: atomic psp has been read  and splines computed

--------------------------------------------------------------------------------

_setup2: Arith. and geom. avg. npw (full set) are  134032.688  134032.339

================================================================================

     iter   Etot(hartree)      deltaE(h)  residm     vres2
 ETOT  1  -107.84674873445    -1.078E+02 1.037E-01 8.560E+06
 ETOT  2  -145.61052980605    -3.776E+01 1.927E-01 9.865E+05
 ETOT  3  -162.85021266185    -1.724E+01 2.801E-01 7.195E+04
 ETOT  4  -166.81086359950    -3.961E+00 1.309E-01 5.150E+04
 ETOT  5  -167.43596251037    -6.251E-01 6.464E-02 7.071E+04
 ETOT  6  -167.56780889549    -1.318E-01 6.614E-02 4.896E+04
 ETOT  7  -167.63250239335    -6.469E-02 2.858E-02 3.622E+04
 ETOT  8  -167.63427994956    -1.778E-03 1.476E-03 3.179E+04
 ETOT  9  -167.64022818756    -5.948E-03 2.231E-03 2.549E+04
 ETOT 10  -167.65453665680    -1.431E-02 2.532E-03 7.948E+02

 Cartesian components of stress tensor (hartree/bohr^3)
  sigma(1 1)=  6.20155337E-05  sigma(3 2)=  0.00000000E+00
  sigma(2 2)=  5.95694396E-05  sigma(3 1)=  0.00000000E+00
  sigma(3 3)=  7.84835250E-05  sigma(2 1)=  0.00000000E+00


 scprqt:  WARNING -
  nstep=   10 was not enough SCF cycles to converge;
  maximum energy difference=  1.431E-02 exceeds toldfe=  1.000E-06

 Integrated electronic density in atomic spheres:
 ------------------------------------------------
 Atom  Sphere_radius  Integrated_density
    1        2.00000          4.09480751
    2        2.00000          4.66853499
    3        2.00000          4.75830109
    4        2.00000          4.79573212
    5        2.00000          4.80340008
    6        2.00000          4.78974593
    7        2.00000          4.78188362
    8        2.00000          4.79424753
    9        2.00000          4.81217600
   10        2.00000          4.81807742
   11        2.00000          4.78486338
   12        2.00000          4.76269286
   13        2.00000          4.68572134
   14        2.00000          4.13553094
   15        2.00000          4.09480751
   16        2.00000          4.66853499
   17        2.00000          4.75830109
   18        2.00000          4.79573212
   19        2.00000          4.80340008
   20        2.00000          4.78974593
   21        2.00000          4.78188362
   22        2.00000          4.79424753
   23        2.00000          4.81217600
   24        2.00000          4.81807742
   25        2.00000          4.78486338
   26        2.00000          4.76269286
   27        2.00000          4.68572134
   28        2.00000          4.13553094
================================================================================

 ----iterations are completed or convergence reached----

 Mean square residual over all n,k,spin=   9.2612E-05; max=  2.5318E-03
 reduced coordinates (array xred) for   28 atoms
       0.000000000000      0.000000000000      0.000000000000
       0.500000000000      0.021960000000      0.000000000000
       0.000000000000      0.043919821429      0.000000000000
       0.500000000000      0.065879821429      0.000000000000
       0.000000000000      0.087839642857      0.000000000000
       0.500000000000      0.109799642857      0.000000000000
       0.000000000000      0.131759642857      0.000000000000
       0.500000000000      0.153719464286      0.000000000000
       0.000000000000      0.175679464286      0.000000000000
       0.500000000000      0.197639285714      0.000000000000
       0.000000000000      0.219599285714      0.000000000000
       0.500000000000      0.241559285714      0.000000000000
       0.000000000000      0.263519107143      0.000000000000
       0.500000000000      0.285479107143      0.000000000000
       0.333333333333      0.000000000000      0.000000000000
      -0.166666666667      0.021960000000      0.000000000000
       0.333333333333      0.043919821429      0.000000000000
      -0.166666666667      0.065879821429      0.000000000000
       0.333333333333      0.087839642857      0.000000000000
      -0.166666666667      0.109799642857      0.000000000000
       0.333333333333      0.131759642857      0.000000000000
      -0.166666666667      0.153719464286      0.000000000000
       0.333333333333      0.175679464286      0.000000000000
      -0.166666666667      0.197639285714      0.000000000000
       0.333333333333      0.219599285714      0.000000000000
      -0.166666666667      0.241559285714      0.000000000000
       0.333333333333      0.263519107143      0.000000000000
      -0.166666666667      0.285479107143      0.000000000000
 rms dE/dt=  5.0103E-01; max dE/dt=  1.4881E+00; dE/dt below (all hartree)
    1      -1.179369062142     -1.411491878275      0.000000000000
    2      -0.138220075708      1.224080891726      0.000000000000
    3      -0.128072707724      0.090487400357      0.000000000000
    4      -0.055859592524     -0.132094360275      0.000000000000
    5      -0.004747407287     -0.105766386887      0.000000000000
    6       0.000506699851     -0.051128855052      0.000000000000
    7      -0.008607240840     -0.032255725635      0.000000000000
    8      -0.007916949848      0.015821424716      0.000000000000
    9       0.002697955503     -0.089647459434      0.000000000000
   10      -0.019431711729      0.113955978390      0.000000000000
   11      -0.068288659853      0.128070314405      0.000000000000
   12      -0.144074236884     -0.156373025823      0.000000000000
   13      -0.157084230882     -1.324988377631      0.000000000000
   14      -1.224654303722      1.488055129335      0.000000000000
   15       1.179369062142     -1.411491878275      0.000000000000
   16       0.138220075708      1.224080891726      0.000000000000
   17       0.128072707724      0.090487400357      0.000000000000
   18       0.055859592524     -0.132094360275      0.000000000000
   19       0.004747407287     -0.105766386887      0.000000000000
   20      -0.000506699851     -0.051128855052      0.000000000000
   21       0.008607240840     -0.032255725635      0.000000000000
   22       0.007916949848      0.015821424716      0.000000000000
   23      -0.002697955503     -0.089647459434      0.000000000000
   24       0.019431711729      0.113955978390      0.000000000000
   25       0.068288659853      0.128070314405      0.000000000000
   26       0.144074236884     -0.156373025823      0.000000000000
   27       0.157084230882     -1.324988377631      0.000000000000
   28       1.224654303722      1.488055129335      0.000000000000

 cartesian coordinates (angstrom) at end:
    1      0.00000000000000     0.00000000000000     0.00000000000000
    2      2.13000000000000     1.22976000000000     0.00000000000000
    3      0.00000000000000     2.45951000000000     0.00000000000000
    4      2.13000000000000     3.68927000000000     0.00000000000000
    5      0.00000000000000     4.91902000000000     0.00000000000000
    6      2.13000000000000     6.14878000000000     0.00000000000000
    7      0.00000000000000     7.37854000000000     0.00000000000000
    8      2.13000000000000     8.60829000000000     0.00000000000000
    9      0.00000000000000     9.83805000000000     0.00000000000000
   10      2.13000000000000    11.06780000000000     0.00000000000000
   11      0.00000000000000    12.29756000000000     0.00000000000000
   12      2.13000000000000    13.52732000000000     0.00000000000000
   13      0.00000000000000    14.75707000000000     0.00000000000000
   14      2.13000000000000    15.98683000000000     0.00000000000000
   15      1.42000000000000     0.00000000000000     0.00000000000000
   16     -0.71000000000000     1.22976000000000     0.00000000000000
   17      1.42000000000000     2.45951000000000     0.00000000000000
   18     -0.71000000000000     3.68927000000000     0.00000000000000
   19      1.42000000000000     4.91902000000000     0.00000000000000
   20     -0.71000000000000     6.14878000000000     0.00000000000000
   21      1.42000000000000     7.37854000000000     0.00000000000000
   22     -0.71000000000000     8.60829000000000     0.00000000000000
   23      1.42000000000000     9.83805000000000     0.00000000000000
   24     -0.71000000000000    11.06780000000000     0.00000000000000
   25      1.42000000000000    12.29756000000000     0.00000000000000
   26     -0.71000000000000    13.52732000000000     0.00000000000000
   27      1.42000000000000    14.75707000000000     0.00000000000000
   28     -0.71000000000000    15.98683000000000     0.00000000000000

 cartesian forces (hartree/bohr) at end:
    1      0.14650122727734     0.01317382028173     0.00000000000000
    2      0.01716969808318    -0.01173126974443     0.00000000000000
    3      0.01590919201177    -0.00101927261159    -0.00000000000000
    4      0.00693887869596     0.00108403443794     0.00000000000000
    5      0.00058972294279     0.00083524580464     0.00000000000000
    6     -0.00006294225655     0.00031894336570     0.00000000000000
    7      0.00106919147445     0.00014059997387     0.00000000000000
    8      0.00098344352604    -0.00031370953006     0.00000000000000
    9     -0.00033514003804     0.00068292850044     0.00000000000000
   10      0.00241380727021    -0.00124104112254     0.00000000000000
   11      0.00848281746466    -0.00137441585349     0.00000000000000
   12      0.01789690199620     0.00131345794622     0.00000000000000
   13      0.01951300347685     0.01235639740666     0.00000000000000
   14      0.15212656007772    -0.01422571885509     0.00000000000000
   15     -0.14650122727734     0.01317382028173     0.00000000000000
   16     -0.01716969808318    -0.01173126974443     0.00000000000000
   17     -0.01590919201177    -0.00101927261159     0.00000000000000
   18     -0.00693887869596     0.00108403443794     0.00000000000000
   19     -0.00058972294279     0.00083524580464     0.00000000000000
   20      0.00006294225655     0.00031894336570     0.00000000000000
   21     -0.00106919147445     0.00014059997387     0.00000000000000
   22     -0.00098344352604    -0.00031370953006     0.00000000000000
   23      0.00033514003804     0.00068292850044     0.00000000000000
   24     -0.00241380727021    -0.00124104112254     0.00000000000000
   25     -0.00848281746466    -0.00137441585349     0.00000000000000
   26     -0.01789690199620     0.00131345794622     0.00000000000000
   27     -0.01951300347685     0.01235639740666     0.00000000000000
   28     -0.15212656007772    -0.01422571885509     0.00000000000000
 frms,max,avg= 3.3330074E-02 1.5212656E-01   0.000E+00  1.642E-04  0.000E+00 h/b

 cartesian forces (eV/Angstrom) at end:
    1      7.53339536679397     0.67742501901036     0.00000000000000
    2      0.88290129982495    -0.60324609412293     0.00000000000000
    3      0.81808347696639    -0.05241310064342    -0.00000000000000
    4      0.35681145878699     0.05574328737043     0.00000000000000
    5      0.03032477043026     0.04295006254715     0.00000000000000
    6     -0.00323662069397     0.01640072590551     0.00000000000000
    7      0.05498003156369     0.00722994074121     0.00000000000000
    8      0.05057069514190    -0.01613159127852     0.00000000000000
    9     -0.01723359221414     0.03511759250538     0.00000000000000
   10      0.12412294998235    -0.06381689502748     0.00000000000000
   11      0.43620397571565    -0.07067529887079     0.00000000000000
   12      0.92029562539362     0.06754071751078     0.00000000000000
   13      1.00339889785678     0.63539144827374     0.00000000000000
   14      7.82266158553226    -0.73151581392143     0.00000000000000
   15     -7.53339536679397     0.67742501901036     0.00000000000000
   16     -0.88290129982495    -0.60324609412293     0.00000000000000
   17     -0.81808347696639    -0.05241310064342     0.00000000000000
   18     -0.35681145878699     0.05574328737043     0.00000000000000
   19     -0.03032477043026     0.04295006254715     0.00000000000000
   20      0.00323662069397     0.01640072590551     0.00000000000000
   21     -0.05498003156369     0.00722994074121     0.00000000000000
   22     -0.05057069514190    -0.01613159127852     0.00000000000000
   23      0.01723359221414     0.03511759250538     0.00000000000000
   24     -0.12412294998235    -0.06381689502748     0.00000000000000
   25     -0.43620397571565    -0.07067529887079     0.00000000000000
   26     -0.92029562539362     0.06754071751078     0.00000000000000
   27     -1.00339889785678     0.63539144827374     0.00000000000000
   28     -7.82266158553226    -0.73151581392143     0.00000000000000
 frms,max,avg= 1.7139012E+00 7.8226616E+00   0.000E+00  8.444E-03  0.000E+00 e/A
 length scales=  8.050233326093105.824663441596 56.691783986569 bohr
              =  4.260000000000 56.000000000000 30.000000000000 angstroms
 prteigrs : about to open file agnr_2o_DS3_EIG
 Fermi (or HOMO) energy (hartree) =  -0.13774   Average Vxc (hartree)=  -0.02384
 Eigenvalues (hartree) for nkpt=   9  k points:
 kpt#   1, nband= 60, wtk=  0.06250, kpt=  0.0000  0.0000  0.0000 (reduced coord)
  -0.85965   -0.84721   -0.83010   -0.80640   -0.77809   -0.74499   -0.70731   -0.66584
  -0.66417   -0.65339   -0.63867   -0.62778   -0.62379   -0.61760   -0.61682   -0.60386
  -0.59416   -0.59235   -0.58350   -0.56259   -0.52786   -0.51722   -0.51247   -0.48820
  -0.48198   -0.47795   -0.44422   -0.44111   -0.43841   -0.42464   -0.41031   -0.40350
  -0.39696   -0.39603   -0.39088   -0.37276   -0.36506   -0.34881   -0.34424   -0.33443
  -0.31241   -0.30118   -0.29897   -0.28160   -0.26286   -0.25943   -0.25703   -0.22619
  -0.22183   -0.21728   -0.21199   -0.20632   -0.19218   -0.17531   -0.16534   -0.13774
  -0.13314   -0.12895   -0.11398   -0.10666
 prteigrs : prtvol=0 or 1, do not print more k-points.


--------------------------------------------------------------------------------
 Components of total free energy (in Hartree) :

    Kinetic energy  =  1.10567219905223E+02
    Hartree energy  =  1.71682041813862E+03
    XC energy       = -5.88849308762712E+01
    Ewald energy    =  1.60013806305516E+03
    PspCore energy  =  6.01210152818519E-02
    Loc. psp. energy= -3.55573765935350E+03
    NL   psp  energy=  1.93822314586915E+01
    >>>>>>>>> Etotal= -1.67654536656797E+02

 Other information on the energy :
    Total energy(eV)= -4.56211195283853E+03 ; Band energy (Ha)=  -5.2092239870E+01
--------------------------------------------------------------------------------

 Cartesian components of stress tensor (hartree/bohr^3)
  sigma(1 1)=  6.20155337E-05  sigma(3 2)=  0.00000000E+00
  sigma(2 2)=  5.95694396E-05  sigma(3 1)=  0.00000000E+00
  sigma(3 3)=  7.84835250E-05  sigma(2 1)=  0.00000000E+00

-Cartesian components of stress tensor (GPa)         [Pressure= -1.9621E+00 GPa]
- sigma(1 1)=  1.82455969E+00  sigma(3 2)=  0.00000000E+00
- sigma(2 2)=  1.75259313E+00  sigma(3 1)=  0.00000000E+00
- sigma(3 3)=  2.30906464E+00  sigma(2 1)=  0.00000000E+00

================================================================================
== DATASET  4 ==================================================================
-   nproc =    1

 Exchange-correlation functional for the present dataset will be:
  LDA: new Teter (4/93) with spin-polarized option - ixc=1
 Citation for XC functional:
  S. Goedecker, M. Teter, J. Huetter, PRB 54, 1703 (1996)

 Real(R)+Recip(G) space primitive vectors, cartesian coordinates (Bohr,Bohr^-1):
 R(1)=  8.0502333  0.0000000  0.0000000  G(1)=  0.1242200  0.0000000  0.0000000
 R(2)=  0.0000000105.8246634  0.0000000  G(2)=  0.0000000  0.0094496  0.0000000
 R(3)=  0.0000000  0.0000000 56.6917840  G(3)=  0.0000000  0.0000000  0.0176392
 Unit cell volume ucvol=  4.8296481E+04 bohr^3
 Angles (23,13,12)=  9.00000000E+01  9.00000000E+01  9.00000000E+01 degrees

 getcut: wavevector=  0.0000  0.0000  0.0000  ngfft=  32 432 225
         ecut(hartree)=     19.000   => boxcut(ratio)=   2.01366

--- Pseudopotential description ------------------------------------------------
- pspini: atom type   1  psp file is ./6c.pspnc
- pspatm: opening atomic psp file    ./6c.pspnc
-  Troullier-Martins psp for element  C         Thu Oct 27 17:29:33 EDT 1994
-  6.00000   4.00000    940714                znucl, zion, pspdat
    1    1    1    1      2001   0.00000      pspcod,pspxc,lmax,lloc,mmax,r2well
    0  10.372  24.987    1   1.4850707        l,e99.0,e99.9,nproj,rcpsp
   0.00000000   0.00000000   0.00000000   0.00000000     rms, ekb1, ekb2, epsatm
    1  15.431  21.987    0   1.4850707        l,e99.0,e99.9,nproj,rcpsp
   0.00000000   0.00000000   0.00000000   0.00000000     rms, ekb1, ekb2, epsatm
    0.83985002509544    0.99012430797080    0.51184907750884   rchrg,fchrg,qchrg
 pspatm: epsatm=    0.92590353
         --- l  ekb(1:nproj) -->
             0    4.921466
 pspatm: atomic psp has been read  and splines computed

--------------------------------------------------------------------------------

_setup2: Arith. and geom. avg. npw (full set) are  191051.063  191050.872

================================================================================

     iter   Etot(hartree)      deltaE(h)  residm     vres2
 ETOT  1  -115.43176188594    -1.154E+02 1.112E-01 1.021E+07
 ETOT  2  -148.14398590733    -3.271E+01 1.068E-01 1.257E+06
 ETOT  3  -164.09592711963    -1.595E+01 2.531E-01 8.709E+04
 ETOT  4  -167.54734734679    -3.451E+00 1.210E-01 6.599E+04
 ETOT  5  -168.10509376759    -5.577E-01 5.398E-02 8.105E+04
 ETOT  6  -168.22905777375    -1.240E-01 4.323E-02 6.472E+04
 ETOT  7  -168.25181190296    -2.275E-02 2.304E-02 5.204E+04
 ETOT  8  -168.27957657577    -2.776E-02 2.459E-03 3.917E+04
 ETOT  9  -168.29141172853    -1.184E-02 1.041E-03 3.080E+04
 ETOT 10  -168.32039477317    -2.898E-02 1.479E-03 7.089E+02

 Cartesian components of stress tensor (hartree/bohr^3)
  sigma(1 1)=  4.07880120E-05  sigma(3 2)=  0.00000000E+00
  sigma(2 2)=  3.48436334E-05  sigma(3 1)=  0.00000000E+00
  sigma(3 3)=  2.45661959E-05  sigma(2 1)=  0.00000000E+00


 scprqt:  WARNING -
  nstep=   10 was not enough SCF cycles to converge;
  maximum energy difference=  2.898E-02 exceeds toldfe=  1.000E-06

 Integrated electronic density in atomic spheres:
 ------------------------------------------------
 Atom  Sphere_radius  Integrated_density
    1        2.00000          4.11103807
    2        2.00000          4.67798022
    3        2.00000          4.78539528
    4        2.00000          4.75054352
    5        2.00000          4.74260674
    6        2.00000          4.74329121
    7        2.00000          4.78265093
    8        2.00000          4.75587077
    9        2.00000          4.77910682
   10        2.00000          4.74321779
   11        2.00000          4.76480137
   12        2.00000          4.74351239
   13        2.00000          4.74532378
   14        2.00000          4.10836998
   15        2.00000          4.13182159
   16        2.00000          4.74390511
   17        2.00000          4.80225275
   18        2.00000          4.79835559
   19        2.00000          4.77353870
   20        2.00000          4.81635385
   21        2.00000          4.80807227
   22        2.00000          4.82685837
   23        2.00000          4.80571480
   24        2.00000          4.81412421
   25        2.00000          4.77854172
   26        2.00000          4.80471279
   27        2.00000          4.76365440
   28        2.00000          4.14357371
================================================================================

 ----iterations are completed or convergence reached----

 Mean square residual over all n,k,spin=   1.2343E-04; max=  1.4790E-03
 reduced coordinates (array xred) for   28 atoms
       0.000000000000      0.000000000000      0.000000000000
       0.500000000000      0.021960000000      0.000000000000
       0.000000000000      0.043919821429      0.000000000000
       0.500000000000      0.065879821429      0.000000000000
       0.000000000000      0.087839642857      0.000000000000
       0.500000000000      0.109799642857      0.000000000000
       0.000000000000      0.131759642857      0.000000000000
       0.500000000000      0.153719464286      0.000000000000
       0.000000000000      0.175679464286      0.000000000000
       0.500000000000      0.197639285714      0.000000000000
       0.000000000000      0.219599285714      0.000000000000
       0.500000000000      0.241559285714      0.000000000000
       0.000000000000      0.263519107143      0.000000000000
       0.500000000000      0.285479107143      0.000000000000
[...]
    Loc. psp. energy= -3.56144034394029E+03
    NL   psp  energy=  1.91030700233071E+01
    >>>>>>>>> Etotal= -1.68594522095186E+02

 Other information on the energy :
    Total energy(eV)= -4.58769025742535E+03 ; Band energy (Ha)=  -5.4802977427E+01
--------------------------------------------------------------------------------

 Cartesian components of stress tensor (hartree/bohr^3)
  sigma(1 1)=  1.84978435E-05  sigma(3 2)=  0.00000000E+00
  sigma(2 2)=  1.21274994E-05  sigma(3 1)=  0.00000000E+00
  sigma(3 3)=  9.90776116E-08  sigma(2 1)=  0.00000000E+00

-Cartesian components of stress tensor (GPa)         [Pressure= -3.0131E-01 GPa]
- sigma(1 1)=  5.44225253E-01  sigma(3 2)=  0.00000000E+00
- sigma(2 2)=  3.56803290E-01  sigma(3 1)=  0.00000000E+00
- sigma(3 3)=  2.91496348E-03  sigma(2 1)=  0.00000000E+00

================================================================================
== DATASET  7 ==================================================================
-   nproc =    1

 Exchange-correlation functional for the present dataset will be:
  LDA: new Teter (4/93) with spin-polarized option - ixc=1
 Citation for XC functional:
  S. Goedecker, M. Teter, J. Huetter, PRB 54, 1703 (1996)

 Real(R)+Recip(G) space primitive vectors, cartesian coordinates (Bohr,Bohr^-1):
 R(1)=  8.0502333  0.0000000  0.0000000  G(1)=  0.1242200  0.0000000  0.0000000
 R(2)=  0.0000000105.8246634  0.0000000  G(2)=  0.0000000  0.0094496  0.0000000
 R(3)=  0.0000000  0.0000000 56.6917840  G(3)=  0.0000000  0.0000000  0.0176392
 Unit cell volume ucvol=  4.8296481E+04 bohr^3
 Angles (23,13,12)=  9.00000000E+01  9.00000000E+01  9.00000000E+01 degrees

 getcut: wavevector=  0.0000  0.0000  0.0000  ngfft=  45 540 288
         ecut(hartree)=     31.000   => boxcut(ratio)=   2.02687

--- Pseudopotential description ------------------------------------------------
- pspini: atom type   1  psp file is ./6c.pspnc
- pspatm: opening atomic psp file    ./6c.pspnc
-  Troullier-Martins psp for element  C         Thu Oct 27 17:29:33 EDT 1994
-  6.00000   4.00000    940714                znucl, zion, pspdat
    1    1    1    1      2001   0.00000      pspcod,pspxc,lmax,lloc,mmax,r2well
    0  10.372  24.987    1   1.4850707        l,e99.0,e99.9,nproj,rcpsp
   0.00000000   0.00000000   0.00000000   0.00000000     rms, ekb1, ekb2, epsatm
    1  15.431  21.987    0   1.4850707        l,e99.0,e99.9,nproj,rcpsp
   0.00000000   0.00000000   0.00000000   0.00000000     rms, ekb1, ekb2, epsatm
    0.83985002509544    0.99012430797080    0.51184907750884   rchrg,fchrg,qchrg
 pspatm: epsatm=    0.92590353
         --- l  ekb(1:nproj) -->
             0    4.921466
 pspatm: atomic psp has been read  and splines computed

--------------------------------------------------------------------------------

_setup2: Arith. and geom. avg. npw (full set) are  398150.813  398150.664

================================================================================

     iter   Etot(hartree)      deltaE(h)  residm     vres2
 ETOT  1  -119.81168970070    -1.198E+02 1.251E-01 2.107E+07
 ETOT  2  -155.56145292452    -3.575E+01 1.445E-01 1.862E+06
 ETOT  3  -165.93343495260    -1.037E+01 2.213E-01 1.271E+05
 ETOT  4  -168.18443484224    -2.251E+00 1.004E-01 1.643E+05
 ETOT  5  -168.46014423514    -2.757E-01 4.287E-02 1.666E+05
 ETOT  6  -168.52756041498    -6.742E-02 2.380E-02 1.269E+05
 ETOT  7  -168.54521866511    -1.766E-02 1.761E-02 1.010E+05
 ETOT  8  -168.56794200051    -2.272E-02 1.784E-03 7.581E+04
 ETOT  9  -168.57994301669    -1.200E-02 1.277E-03 5.825E+04
 ETOT 10  -168.60442808116    -2.449E-02 7.517E-03 7.936E+02

 Cartesian components of stress tensor (hartree/bohr^3)
  sigma(1 1)=  1.76199250E-05  sigma(3 2)=  0.00000000E+00
  sigma(2 2)=  1.08977625E-05  sigma(3 1)=  0.00000000E+00
  sigma(3 3)= -3.29553999E-06  sigma(2 1)=  0.00000000E+00


 scprqt:  WARNING -
  nstep=   10 was not enough SCF cycles to converge;
  maximum energy difference=  2.449E-02 exceeds toldfe=  1.000E-06

 Integrated electronic density in atomic spheres:
 ------------------------------------------------
 Atom  Sphere_radius  Integrated_density
    1        2.00000          4.17187555
    2        2.00000          4.75149635
    3        2.00000          4.76690484
    4        2.00000          4.78724460
    5        2.00000          4.78720482
    6        2.00000          4.80959687
    7        2.00000          4.77083119
    8        2.00000          4.78297898
    9        2.00000          4.77342130
   10        2.00000          4.80722611
   11        2.00000          4.78772618
   12        2.00000          4.78273826
   13        2.00000          4.72676501
   14        2.00000          4.18955189
   15        2.00000          4.17187555
   16        2.00000          4.75149635
   17        2.00000          4.76690484
   18        2.00000          4.78724460
   19        2.00000          4.78720482
   20        2.00000          4.80959687
   21        2.00000          4.77083119
   22        2.00000          4.78297898
   23        2.00000          4.77342130
   24        2.00000          4.80722611
   25        2.00000          4.78772618
   26        2.00000          4.78273826
   27        2.00000          4.72676501
   28        2.00000          4.18955189
================================================================================

 ----iterations are completed or convergence reached----

 Mean square residual over all n,k,spin=   2.6099E-04; max=  7.5172E-03
 reduced coordinates (array xred) for   28 atoms
       0.000000000000      0.000000000000      0.000000000000
       0.500000000000      0.021960000000      0.000000000000
       0.000000000000      0.043919821429      0.000000000000
       0.500000000000      0.065879821429      0.000000000000
       0.000000000000      0.087839642857      0.000000000000
       0.500000000000      0.109799642857      0.000000000000
       0.000000000000      0.131759642857      0.000000000000
       0.500000000000      0.153719464286      0.000000000000
       0.000000000000      0.175679464286      0.000000000000
       0.500000000000      0.197639285714      0.000000000000
       0.000000000000      0.219599285714      0.000000000000
       0.500000000000      0.241559285714      0.000000000000
       0.000000000000      0.263519107143      0.000000000000
       0.500000000000      0.285479107143      0.000000000000
       0.333333333333      0.000000000000      0.000000000000
      -0.166666666667      0.021960000000      0.000000000000
       0.333333333333      0.043919821429      0.000000000000
      -0.166666666667      0.065879821429      0.000000000000
       0.333333333333      0.087839642857      0.000000000000
      -0.166666666667      0.109799642857      0.000000000000
       0.333333333333      0.131759642857      0.000000000000
      -0.166666666667      0.153719464286      0.000000000000
       0.333333333333      0.175679464286      0.000000000000
      -0.166666666667      0.197639285714      0.000000000000
       0.333333333333      0.219599285714      0.000000000000
      -0.166666666667      0.241559285714      0.000000000000
       0.333333333333      0.263519107143      0.000000000000
      -0.166666666667      0.285479107143      0.000000000000
 rms dE/dt=  9.5693E-01; max dE/dt=  3.1455E+00; dE/dt below (all hartree)
    1      -1.329815759189     -3.218303664431      0.000000000000
    2      -0.111087123429      2.657327924447      0.000000000000
    3      -0.112801518824      0.508537324825     -0.000000000000
    4      -0.063435652724     -0.091441260292      0.000000000000
    5      -0.010024103850     -0.111565082371      0.000000000000
    6      -0.009873091772      0.186517633455      0.000000000000
    7      -0.019680774463      0.090536388217      0.000000000000
    8      -0.031617582632     -0.038261296239      0.000000000000
    9      -0.012487711361     -0.136048818525      0.000000000000
   10      -0.007477332201     -0.039138005047      0.000000000000
   11      -0.057574297794      0.090016022686      0.000000000000
   12      -0.118709339926     -0.442932745800      0.000000000000
   13      -0.111385765294     -2.642852944341      0.000000000000
   14      -1.335969972441      3.145549043233      0.000000000000
   15       1.329815759189     -3.218303664431      0.000000000000
   16       0.111087123429      2.657327924447      0.000000000000
   17       0.112801518824      0.508537324825      0.000000000000
   18       0.063435652724     -0.091441260292      0.000000000000
   19       0.010024103850     -0.111565082371      0.000000000000
   20       0.009873091772      0.186517633455      0.000000000000
   21       0.019680774463      0.090536388217      0.000000000000
   22       0.031617582632     -0.038261296239      0.000000000000
   23       0.012487711361     -0.136048818525      0.000000000000
   24       0.007477332201     -0.039138005047      0.000000000000
   25       0.057574297794      0.090016022686      0.000000000000
   26       0.118709339926     -0.442932745800      0.000000000000
   27       0.111385765294     -2.642852944341      0.000000000000
   28       1.335969972441      3.145549043233      0.000000000000

 cartesian coordinates (angstrom) at end:
    1      0.00000000000000     0.00000000000000     0.00000000000000
    2      2.13000000000000     1.22976000000000     0.00000000000000
    3      0.00000000000000     2.45951000000000     0.00000000000000
    4      2.13000000000000     3.68927000000000     0.00000000000000
    5      0.00000000000000     4.91902000000000     0.00000000000000
    6      2.13000000000000     6.14878000000000     0.00000000000000
    7      0.00000000000000     7.37854000000000     0.00000000000000
    8      2.13000000000000     8.60829000000000     0.00000000000000
    9      0.00000000000000     9.83805000000000     0.00000000000000
   10      2.13000000000000    11.06780000000000     0.00000000000000
   11      0.00000000000000    12.29756000000000     0.00000000000000
   12      2.13000000000000    13.52732000000000     0.00000000000000
   13      0.00000000000000    14.75707000000000     0.00000000000000
   14      2.13000000000000    15.98683000000000     0.00000000000000
   15      1.42000000000000     0.00000000000000     0.00000000000000
   16     -0.71000000000000     1.22976000000000     0.00000000000000
   17      1.42000000000000     2.45951000000000     0.00000000000000
   18     -0.71000000000000     3.68927000000000     0.00000000000000
   19      1.42000000000000     4.91902000000000     0.00000000000000
   20     -0.71000000000000     6.14878000000000     0.00000000000000
   21      1.42000000000000     7.37854000000000     0.00000000000000
   22     -0.71000000000000     8.60829000000000     0.00000000000000
   23      1.42000000000000     9.83805000000000     0.00000000000000
   24     -0.71000000000000    11.06780000000000     0.00000000000000
   25      1.42000000000000    12.29756000000000     0.00000000000000
   26     -0.71000000000000    13.52732000000000     0.00000000000000
   27      1.42000000000000    14.75707000000000     0.00000000000000
   28     -0.71000000000000    15.98683000000000     0.00000000000000

 cartesian forces (hartree/bohr) at end:
    1      0.16518971628790     0.03038327088676    -0.00000000000000
    2      0.01379924269631    -0.02513905630799    -0.00000000000000
    3      0.01401220489575    -0.00483385967669     0.00000000000000
    4      0.00787997690931     0.00083569376771    -0.00000000000000
    5      0.00124519420047     0.00102585569617    -0.00000000000000
    6      0.00122643547984    -0.00179090465186    -0.00000000000000
    7      0.00244474584343    -0.00088392094772    -0.00000000000000
    8      0.00392753617827     0.00033316475108    -0.00000000000000
    9      0.00155122353039     0.00125721703820    -0.00000000000000
   10      0.00092883422103     0.00034144929251    -0.00000000000000
   11      0.00715187938809    -0.00087900370524    -0.00000000000000
   12      0.01474607444495     0.00415714525242    -0.00000000000000
   13      0.01383633998945     0.02494549578429    -0.00000000000000
   14      0.16595419267055    -0.02975254717966    -0.00000000000000
   15     -0.16518971628790     0.03038327088676    -0.00000000000000
   16     -0.01379924269631    -0.02513905630799    -0.00000000000000
   17     -0.01401220489575    -0.00483385967669    -0.00000000000000
   18     -0.00787997690931     0.00083569376771    -0.00000000000000
   19     -0.00124519420047     0.00102585569617    -0.00000000000000
   20     -0.00122643547984    -0.00179090465186    -0.00000000000000
   21     -0.00244474584343    -0.00088392094772    -0.00000000000000
   22     -0.00392753617827     0.00033316475108    -0.00000000000000
   23     -0.00155122353039     0.00125721703820    -0.00000000000000
   24     -0.00092883422103     0.00034144929251    -0.00000000000000
   25     -0.00715187938809    -0.00087900370524    -0.00000000000000
   26     -0.01474607444495     0.00415714525242    -0.00000000000000
   27     -0.01383633998945     0.02494549578429    -0.00000000000000
   28     -0.16595419267055    -0.02975254717966    -0.00000000000000
 frms,max,avg= 3.7440948E-02 1.6595419E-01   0.000E+00  2.839E-05  0.000E+00 h/b

 cartesian forces (eV/Angstrom) at end:
    1      8.49439602966214     1.56237047552569    -0.00000000000000
    2      0.70958552993427    -1.29270214206218    -0.00000000000000
    3      0.72053648561147    -0.24856703775702     0.00000000000000
    4      0.40520467058405     0.04297309773231    -0.00000000000000
    5      0.06403045486296     0.05275161643445    -0.00000000000000
    6      0.06306584274528    -0.09209201217923    -0.00000000000000
    7      0.12571387525000    -0.04545303883070    -0.00000000000000
    8      0.20196201354898     0.01713201888370    -0.00000000000000
    9      0.07976711440484     0.06464869398480    -0.00000000000000
   10      0.04776257200873     0.01755802709662    -0.00000000000000
   11      0.36776439383754    -0.04520018407686    -0.00000000000000
   12      0.75827357194528     0.21376898586940    -0.00000000000000
   13      0.71149314928686     1.28274886058127    -0.00000000000000
   14      8.53370698251977    -1.52993736120225    -0.00000000000000
   15     -8.49439602966214     1.56237047552569    -0.00000000000000
   16     -0.70958552993426    -1.29270214206218    -0.00000000000000
   17     -0.72053648561147    -0.24856703775702    -0.00000000000000
   18     -0.40520467058405     0.04297309773231    -0.00000000000000
   19     -0.06403045486296     0.05275161643445    -0.00000000000000
   20     -0.06306584274528    -0.09209201217923    -0.00000000000000
   21     -0.12571387525000    -0.04545303883070    -0.00000000000000
   22     -0.20196201354898     0.01713201888370    -0.00000000000000
   23     -0.07976711440484     0.06464869398480    -0.00000000000000
   24     -0.04776257200873     0.01755802709662    -0.00000000000000
   25     -0.36776439383754    -0.04520018407686    -0.00000000000000
   26     -0.75827357194528     0.21376898586940    -0.00000000000000
   27     -0.71149314928686     1.28274886058127    -0.00000000000000
   28     -8.53370698251977    -1.52993736120225    -0.00000000000000
 frms,max,avg= 1.9252908E+00 8.5337070E+00   0.000E+00  1.460E-03  0.000E+00 e/A
 length scales=  8.050233326093105.824663441596 56.691783986569 bohr
              =  4.260000000000 56.000000000000 30.000000000000 angstroms
 prteigrs : about to open file agnr_2o_DS7_EIG
 Fermi (or HOMO) energy (hartree) =  -0.16683   Average Vxc (hartree)=  -0.01985
 Eigenvalues (hartree) for nkpt=   9  k points:
 kpt#   1, nband= 60, wtk=  0.06250, kpt=  0.0000  0.0000  0.0000 (reduced coord)
  -0.87292   -0.86719   -0.84991   -0.82861   -0.80089   -0.76848   -0.73085   -0.68986
  -0.67872   -0.67457   -0.65924   -0.64919   -0.64655   -0.64192   -0.64099   -0.62954
  -0.61770   -0.61707   -0.61666   -0.58777   -0.55349   -0.54444   -0.53999   -0.51467
  -0.51289   -0.51106   -0.47504   -0.47174   -0.46839   -0.44231   -0.43953   -0.43474
  -0.42597   -0.42400   -0.41567   -0.40745   -0.39168   -0.38114   -0.37850   -0.36127
  -0.34757   -0.33290   -0.32623   -0.31616   -0.29188   -0.28725   -0.28670   -0.25788
  -0.25583   -0.24748   -0.24521   -0.23994   -0.22038   -0.20411   -0.19517   -0.16683
  -0.16362   -0.16261   -0.15516   -0.13054
 prteigrs : prtvol=0 or 1, do not print more k-points.


--------------------------------------------------------------------------------
 Components of total free energy (in Hartree) :

    Kinetic energy  =  1.14746864299595E+02
    Hartree energy  =  1.71837833576617E+03
    XC energy       = -5.93917030612358E+01
    Ewald energy    =  1.60013806305516E+03
    PspCore energy  =  6.01210152818519E-02
    Loc. psp. energy= -3.56165187955387E+03
    NL   psp  energy=  1.91157703977358E+01
    >>>>>>>>> Etotal= -1.68604428081165E+02

 Other information on the energy :
    Total energy(eV)= -4.58795981301234E+03 ; Band energy (Ha)=  -5.5126459029E+01
--------------------------------------------------------------------------------

 Cartesian components of stress tensor (hartree/bohr^3)
  sigma(1 1)=  1.76199250E-05  sigma(3 2)=  0.00000000E+00
  sigma(2 2)=  1.08977625E-05  sigma(3 1)=  0.00000000E+00
  sigma(3 3)= -3.29553999E-06  sigma(2 1)=  0.00000000E+00

-Cartesian components of stress tensor (GPa)         [Pressure= -2.4735E-01 GPa]
- sigma(1 1)=  5.18396003E-01  sigma(3 2)=  0.00000000E+00
- sigma(2 2)=  3.20623190E-01  sigma(3 1)=  0.00000000E+00
- sigma(3 3)= -9.69581176E-02  sigma(2 1)=  0.00000000E+00

================================================================================
== DATASET  8 ==================================================================
-   nproc =    1

 Exchange-correlation functional for the present dataset will be:
  LDA: new Teter (4/93) with spin-polarized option - ixc=1
 Citation for XC functional:
  S. Goedecker, M. Teter, J. Huetter, PRB 54, 1703 (1996)

 Real(R)+Recip(G) space primitive vectors, cartesian coordinates (Bohr,Bohr^-1):
 R(1)=  8.0502333  0.0000000  0.0000000  G(1)=  0.1242200  0.0000000  0.0000000
 R(2)=  0.0000000105.8246634  0.0000000  G(2)=  0.0000000  0.0094496  0.0000000
 R(3)=  0.0000000  0.0000000 56.6917840  G(3)=  0.0000000  0.0000000  0.0176392
 Unit cell volume ucvol=  4.8296481E+04 bohr^3
 Angles (23,13,12)=  9.00000000E+01  9.00000000E+01  9.00000000E+01 degrees

 getcut: wavevector=  0.0000  0.0000  0.0000  ngfft=  45 576 320
         ecut(hartree)=     35.000   => boxcut(ratio)=   2.04379

--- Pseudopotential description ------------------------------------------------
- pspini: atom type   1  psp file is ./6c.pspnc
- pspatm: opening atomic psp file    ./6c.pspnc
-  Troullier-Martins psp for element  C         Thu Oct 27 17:29:33 EDT 1994
-  6.00000   4.00000    940714                znucl, zion, pspdat
    1    1    1    1      2001   0.00000      pspcod,pspxc,lmax,lloc,mmax,r2well
    0  10.372  24.987    1   1.4850707        l,e99.0,e99.9,nproj,rcpsp
   0.00000000   0.00000000   0.00000000   0.00000000     rms, ekb1, ekb2, epsatm
    1  15.431  21.987    0   1.4850707        l,e99.0,e99.9,nproj,rcpsp
   0.00000000   0.00000000   0.00000000   0.00000000     rms, ekb1, ekb2, epsatm
    0.83985002509544    0.99012430797080    0.51184907750884   rchrg,fchrg,qchrg
 pspatm: epsatm=    0.92590353
         --- l  ekb(1:nproj) -->
             0    4.921466
 pspatm: atomic psp has been read  and splines computed

--------------------------------------------------------------------------------

_setup2: Arith. and geom. avg. npw (full set) are  477671.063  477671.032

================================================================================

     iter   Etot(hartree)      deltaE(h)  residm     vres2
 ETOT  1  -124.44126686315    -1.244E+02 1.292E-01 2.165E+07
