  ABINIT 8.4.3
  
  Give name for formatted input file: 
zgnr.in
  Give name for formatted output file:
zgnr.out
  Give root name for generic input files:
zgnri
  Give root name for generic output files:
zgnro
  Give root name for generic temporary files:
zgnr

--- !COMMENT
src_file: isfile.F90
src_line: 109
message: |
    Output file zgnr.out
     already exists.
...


--- !COMMENT
src_file: isfile.F90
src_line: 133
message: |
    Renaming old zgnr.out to zgnr.out0001
...


.Version 8.4.3 of ABINIT 
.(sequential version, prepared for a x86_64_linux_gnu5.4 computer) 

.Copyright (C) 1998-2017 ABINIT group . 
 ABINIT comes with ABSOLUTELY NO WARRANTY.
 It is free software, and you are welcome to redistribute it
 under certain conditions (GNU General Public License,
 see ~abinit/COPYING or http://www.gnu.org/copyleft/gpl.txt).

 ABINIT is a project of the Universite Catholique de Louvain,
 Corning Inc. and other collaborators, see ~abinit/doc/developers/contributors.txt .
 Please read ~abinit/doc/users/acknowledgments.html for suggested
 acknowledgments of the ABINIT effort.
 For more information, see http://www.abinit.org .

.Starting date : Thu 24 Aug 2017.
- ( at 15h46 )
  

 ++++++++++++++++++++++++++++++++++++++++++++++++++++++++++++++++++++++++++++++

 === Build Information === 
  Version       : 8.4.3
  Build target  : x86_64_linux_gnu5.4
  Build date    : 20170815

 === Compiler Suite === 
  C compiler       : gnu5.4
  C++ compiler     : gnu5.4
  Fortran compiler : gnu5.4
  CFLAGS           :  -g -O2 -mtune=native -march=native
  CXXFLAGS         :  -g -O2 -mtune=native -march=native
  FCFLAGS          :  -g -ffree-line-length-none
  FC_LDFLAGS       : 

 === Optimizations === 
  Debug level        : basic
  Optimization level : standard
  Architecture       : intel_xeon

 === Multicore === 
  Parallel build : no
  Parallel I/O   : no
  openMP support : no
  GPU support    : no

 === Connectors / Fallbacks === 
  Connectors on : yes
  Fallbacks on  : yes
  DFT flavor    : none
  FFT flavor    : none
  LINALG flavor : netlib
  MATH flavor   : none
  TIMER flavor  : abinit
  TRIO flavor   : none

 === Experimental features === 
  Bindings            : @enable_bindings@
  Exports             : no
  GW double-precision : no

 ++++++++++++++++++++++++++++++++++++++++++++++++++++++++++++++++++++++++++++++


 ++++++++++++++++++++++++++++++++++++++++++++++++++++++++++++++++++++++++++++++
 Default optimizations:
   -O2 -mtune=native -march=native


 Optimizations for 20_datashare:
   -O0


 ++++++++++++++++++++++++++++++++++++++++++++++++++++++++++++++++++++++++++++++


 ++++++++++++++++++++++++++++++++++++++++++++++++++++++++++++++++++++++++++++++
 CPP options activated during the build:

                    CC_GNU                   CXX_GNU                    FC_GNU
 
 HAVE_FC_ALLOCATABLE_DT...             HAVE_FC_ASYNC         HAVE_FC_BACKTRACE
 
  HAVE_FC_COMMAND_ARGUMENT      HAVE_FC_COMMAND_LINE        HAVE_FC_CONTIGUOUS
 
           HAVE_FC_CPUTIME              HAVE_FC_EXIT             HAVE_FC_FLUSH
 
             HAVE_FC_GAMMA            HAVE_FC_GETENV   HAVE_FC_IEEE_EXCEPTIONS
 
          HAVE_FC_INT_QUAD             HAVE_FC_IOMSG     HAVE_FC_ISO_C_BINDING
 
  HAVE_FC_ISO_FORTRAN_2008        HAVE_FC_LONG_LINES        HAVE_FC_MOVE_ALLOC
 
           HAVE_FC_PRIVATE         HAVE_FC_PROTECTED         HAVE_FC_STREAM_IO
 
            HAVE_FC_SYSTEM          HAVE_FORTRAN2003        HAVE_LIBPAW_ABINIT
 
      HAVE_LIBTETRA_ABINIT               HAVE_LINALG        HAVE_LINALG_SERIAL
 
             HAVE_OS_LINUX         HAVE_TIMER_ABINIT              USE_MACROAVE
 
 ++++++++++++++++++++++++++++++++++++++++++++++++++++++++++++++++++++++++++++++

- input  file    -> zgnr.in
- output file    -> zgnr.out
- root for input  files -> zgnri
- root for output files -> zgnro

-instrng: 92 lines of input have been read from file zgnr.in


 Please give name of formatted atomic psp file
 iofn2 : for atom type 1, psp file is ./6c-gga-uspp.paw

 Please give name of formatted atomic psp file
 iofn2 : for atom type 2, psp file is ./1h-gga-uspp.paw
  read the values zionpsp=  4.0 , pspcod=   7 , lmax=   1
 3 0.                                   : shape_type,rshape                      
  read the values zionpsp=  1.0 , pspcod=   7 , lmax=   0
 3 0.                                   : shape_type,rshape                      

 inpspheads: deduce mpsang = 2, n1xccc = 1.
 invars1 : treat image number: 1
 ingeo : use angdeg to generate rprim.

 symlatt : the Bravais lattice is oP (primitive orthorhombic)
  xangst is defined in input file
 ingeo : takes atomic coordinates from input array xangst
  symfind : exit, nsym=           1
    symrel matrices, symafm and tnons are :
   1       1   0   0     0   1   0     0   0   1       1      0.0000  0.0000  0.0000

 symlatt : the Bravais lattice is oP (primitive orthorhombic)

 symlatt : the Bravais lattice is oP (primitive orthorhombic)

--- !COMMENT
src_file: symbrav.F90
src_line: 201
message: |
    The Bravais lattice determined only from the primitive
    vectors, bravais(1)=  3, is more symmetric
    than the real one, iholohedry=  1, obtained by taking into
    account the atomic positions. Start deforming the primitive vector set.
...


 symlatt : the Bravais lattice is aP (primitive triclinic)
 symspgr : spgroup=   1  P1   (=C1^1)
 ingeo : angdeg(1:3)=   90.00000000   90.00000000   90.00000000
 invars2: take the default value of fband=  5.00000000E-01
 chkneu : initialized the occupation numbers for occopt=    7
    spin up   values :
  1.00  1.00  1.00  1.00  1.00  1.00  1.00  1.00  1.00  1.00  1.00  1.00
  1.00  1.00  1.00  1.00  1.00  1.00  1.00  1.00  1.00  1.00  1.00  1.00
  1.00  1.00  1.00  1.00  1.00  1.00  1.00  1.00  1.00  0.00  0.00  0.00
  0.00  0.00  0.00  0.00  0.00  0.00
    spin down values :
  1.00  1.00  1.00  1.00  1.00  1.00  1.00  1.00  1.00  1.00  1.00  1.00
  1.00  1.00  1.00  1.00  1.00  1.00  1.00  1.00  1.00  1.00  1.00  1.00
  1.00  1.00  1.00  1.00  1.00  1.00  1.00  1.00  1.00  0.00  0.00  0.00
  0.00  0.00  0.00  0.00  0.00  0.00
mpi_setup: mkmem  undefined in the input file.Use default mkmem  = nkpt
 mpi_setup: With nkpt_me=16 and mkmem  = 16, ground state wf handled in core.
mpi_setup: mkqmem undefined in the input file.Use default mkqmem = nkpt
 mpi_setup: With nkpt_me=16 and mkqmem = 16, ground state wf handled in core.
mpi_setup: mk1mem undefined in the input file.Use default mk1mem = nkpt
 mpi_setup: With nkpt_me=16 and mk1mem = 16, ground state wf handled in core.
getng is called for the coarse grid:
 For input ecut=  1.851500E+01 best grid ngfft=     120     270      20
       max ecut=  2.055907E+01

 ==== FFT mesh ====
  FFT mesh divisions ........................   120  270   20
  Augmented FFT divisions ...................   121  271   20
  FFT algorithm .............................   112
  FFT cache size ............................    16
 getmpw: optimal value of mpw= 33495
getng is called for the fine grid:
 Using supplied coarse mesh as initial guess.
 For input ecut=  5.290000E+01 best grid ngfft=     192     450      32
       max ecut=  5.660202E+01

 ==== FFT mesh ====
  FFT mesh divisions ........................   192  450   32
  Augmented FFT divisions ...................   193  451   32
  FFT algorithm .............................   112
  FFT cache size ............................    16

 Symmetries : space group P1 (#  1); Bravais aP (primitive triclinic)

 getdim_nloc : deduce lmnmax  =   8, lnmax  =   4,
                      lmnmaxso=   8, lnmaxso=   4.
memory : analysis of memory needs
================================================================================
 Values of the parameters that define the memory need of the present run
     intxc =       0    ionmov =       2      iscf =      17    lmnmax =       8
     lnmax =       4     mgfft =     270  mpssoang =       2    mqgrid =   21656
     natom =      18  nloc_mem =       2    nspden =       2   nspinor =       1
    nsppol =       2      nsym =       1    n1xccc =       1    ntypat =       2
    occopt =       7   xclevel =       2
-    mband =          42        mffmem =           1         mkmem =          16
       mpw =       33495          nfft =      648000          nkpt =          16
 PAW method is used; the additional fine FFT grid is defined by:
   mgfftf=       450    nfftf =   2764800
================================================================================
P This job should need less than                    1926.077 Mbytes of memory.
  Rough estimation (10% accuracy) of disk space for files :
_ WF disk file :    686.911 Mbytes ; DEN or POT disk file :     42.190 Mbytes.
================================================================================

 Biggest array : cg(disk), with    686.9112 MBytes.
 memana : allocated an array of    686.911 Mbytes, for testing purposes.
 memana: allocated    1926.077Mbytes, for testing purposes. 
 The job will continue.
--------------------------------------------------------------------------------
------------- Echo of variables that govern the present computation ------------
--------------------------------------------------------------------------------
-
- outvars: echo of selected default values                                      
-   iomode0 =  0 , fftalg0 =112 , wfoptalg0 = 10
-
- outvars: echo of global parameters not present in the input file              
-  max_nthreads =    0
-
 -outvars: echo values of preprocessed input variables --------
            acell      2.8345891993E+01  6.6140414651E+01  4.6652108581E+00 Bohr
              amu      1.20110000E+01  1.00794000E+00
           diemac      1.00000000E+01
          dilatmx      1.15000000E+00
             ecut      1.40000000E+01 Hartree
           ecutsm      5.00000000E-01 Hartree
-          fftalg         112
           ionmov           2
           istwfk        2    0    0    0    0    0    0    0    0    0
                         0    0    0    0    0    4
              ixc          11
              kpt      0.00000000E+00  0.00000000E+00  0.00000000E+00
                       0.00000000E+00  0.00000000E+00  3.33333333E-02
                       0.00000000E+00  0.00000000E+00  6.66666667E-02
                       0.00000000E+00  0.00000000E+00  1.00000000E-01
                       0.00000000E+00  0.00000000E+00  1.33333333E-01
                       0.00000000E+00  0.00000000E+00  1.66666667E-01
                       0.00000000E+00  0.00000000E+00  2.00000000E-01
                       0.00000000E+00  0.00000000E+00  2.33333333E-01
                       0.00000000E+00  0.00000000E+00  2.66666667E-01
                       0.00000000E+00  0.00000000E+00  3.00000000E-01
                       0.00000000E+00  0.00000000E+00  3.33333333E-01
                       0.00000000E+00  0.00000000E+00  3.66666667E-01
                       0.00000000E+00  0.00000000E+00  4.00000000E-01
                       0.00000000E+00  0.00000000E+00  4.33333333E-01
                       0.00000000E+00  0.00000000E+00  4.66666667E-01
                       0.00000000E+00  0.00000000E+00  5.00000000E-01
         kptrlatt        1    0    0      0    1    0      0    0   30
          kptrlen      1.39956326E+02
P           mkmem          16
            natom          18
            nband          42
            ngfft         120     270      20
          ngfftdg         192     450      32
             nkpt          16
           nspden           2
           nsppol           2
            nstep          80
             nsym           1
            ntime          80
           ntypat           2
              occ      1.000000  1.000000  1.000000  1.000000  1.000000  1.000000
                       1.000000  1.000000  1.000000  1.000000  1.000000  1.000000
                       1.000000  1.000000  1.000000  1.000000  1.000000  1.000000
                       1.000000  1.000000  1.000000  1.000000  1.000000  1.000000
                       1.000000  1.000000  1.000000  1.000000  1.000000  1.000000
                       1.000000  1.000000  1.000000  0.000000  0.000000  0.000000
                       0.000000  0.000000  0.000000  0.000000  0.000000  0.000000
                       1.000000  1.000000  1.000000  1.000000  1.000000  1.000000
                       1.000000  1.000000  1.000000  1.000000  1.000000  1.000000
                       1.000000  1.000000  1.000000  1.000000  1.000000  1.000000
                       1.000000  1.000000  1.000000  1.000000  1.000000  1.000000
                       1.000000  1.000000  1.000000  1.000000  1.000000  1.000000
                       1.000000  1.000000  1.000000  0.000000  0.000000  0.000000
                       0.000000  0.000000  0.000000  0.000000  0.000000  0.000000
                       1.000000  1.000000  1.000000  1.000000  1.000000  1.000000
                       1.000000  1.000000  1.000000  1.000000  1.000000  1.000000
                       1.000000  1.000000  1.000000  1.000000  1.000000  1.000000
                       1.000000  1.000000  1.000000  1.000000  1.000000  1.000000
                       1.000000  1.000000  1.000000  1.000000  1.000000  1.000000
                       1.000000  1.000000  1.000000  0.000000  0.000000  0.000000
                       0.000000  0.000000  0.000000  0.000000  0.000000  0.000000
                       1.000000  1.000000  1.000000  1.000000  1.000000  1.000000
                       1.000000  1.000000  1.000000  1.000000  1.000000  1.000000
                       1.000000  1.000000  1.000000  1.000000  1.000000  1.000000
                       1.000000  1.000000  1.000000  1.000000  1.000000  1.000000
                       1.000000  1.000000  1.000000  1.000000  1.000000  1.000000
                       1.000000  1.000000  1.000000  0.000000  0.000000  0.000000
                       0.000000  0.000000  0.000000  0.000000  0.000000  0.000000
                       1.000000  1.000000  1.000000  1.000000  1.000000  1.000000
                       1.000000  1.000000  1.000000  1.000000  1.000000  1.000000
                       1.000000  1.000000  1.000000  1.000000  1.000000  1.000000
                       1.000000  1.000000  1.000000  1.000000  1.000000  1.000000
                       1.000000  1.000000  1.000000  1.000000  1.000000  1.000000
                       1.000000  1.000000  1.000000  0.000000  0.000000  0.000000
                       0.000000  0.000000  0.000000  0.000000  0.000000  0.000000
                       1.000000  1.000000  1.000000  1.000000  1.000000  1.000000
                       1.000000  1.000000  1.000000  1.000000  1.000000  1.000000
                       1.000000  1.000000  1.000000  1.000000  1.000000  1.000000
                       1.000000  1.000000  1.000000  1.000000  1.000000  1.000000
                       1.000000  1.000000  1.000000  1.000000  1.000000  1.000000
                       1.000000  1.000000  1.000000  0.000000  0.000000  0.000000
                       0.000000  0.000000  0.000000  0.000000  0.000000  0.000000
                       1.000000  1.000000  1.000000  1.000000  1.000000  1.000000
                       1.000000  1.000000  1.000000  1.000000  1.000000  1.000000
                       1.000000  1.000000  1.000000  1.000000  1.000000  1.000000
                       1.000000  1.000000  1.000000  1.000000  1.000000  1.000000
                       1.000000  1.000000  1.000000  1.000000  1.000000  1.000000
                       1.000000  1.000000  1.000000  0.000000  0.000000  0.000000
                       0.000000  0.000000  0.000000  0.000000  0.000000  0.000000
                       1.000000  1.000000  1.000000  1.000000  1.000000  1.000000
                       1.000000  1.000000  1.000000  1.000000  1.000000  1.000000
                       1.000000  1.000000  1.000000  1.000000  1.000000  1.000000
                       1.000000  1.000000  1.000000  1.000000  1.000000  1.000000
                       1.000000  1.000000  1.000000  1.000000  1.000000  1.000000
                       1.000000  1.000000  1.000000  0.000000  0.000000  0.000000
                       0.000000  0.000000  0.000000  0.000000  0.000000  0.000000
                       1.000000  1.000000  1.000000  1.000000  1.000000  1.000000
                       1.000000  1.000000  1.000000  1.000000  1.000000  1.000000
                       1.000000  1.000000  1.000000  1.000000  1.000000  1.000000
                       1.000000  1.000000  1.000000  1.000000  1.000000  1.000000
                       1.000000  1.000000  1.000000  1.000000  1.000000  1.000000
                       1.000000  1.000000  1.000000  0.000000  0.000000  0.000000
                       0.000000  0.000000  0.000000  0.000000  0.000000  0.000000
                       1.000000  1.000000  1.000000  1.000000  1.000000  1.000000
                       1.000000  1.000000  1.000000  1.000000  1.000000  1.000000
                       1.000000  1.000000  1.000000  1.000000  1.000000  1.000000
                       1.000000  1.000000  1.000000  1.000000  1.000000  1.000000
                       1.000000  1.000000  1.000000  1.000000  1.000000  1.000000
                       1.000000  1.000000  1.000000  0.000000  0.000000  0.000000
                       0.000000  0.000000  0.000000  0.000000  0.000000  0.000000
                       1.000000  1.000000  1.000000  1.000000  1.000000  1.000000
                       1.000000  1.000000  1.000000  1.000000  1.000000  1.000000
                       1.000000  1.000000  1.000000  1.000000  1.000000  1.000000
                       1.000000  1.000000  1.000000  1.000000  1.000000  1.000000
                       1.000000  1.000000  1.000000  1.000000  1.000000  1.000000
                       1.000000  1.000000  1.000000  0.000000  0.000000  0.000000
                       0.000000  0.000000  0.000000  0.000000  0.000000  0.000000
                       1.000000  1.000000  1.000000  1.000000  1.000000  1.000000
                       1.000000  1.000000  1.000000  1.000000  1.000000  1.000000
                       1.000000  1.000000  1.000000  1.000000  1.000000  1.000000
                       1.000000  1.000000  1.000000  1.000000  1.000000  1.000000
                       1.000000  1.000000  1.000000  1.000000  1.000000  1.000000
                       1.000000  1.000000  1.000000  0.000000  0.000000  0.000000
                       0.000000  0.000000  0.000000  0.000000  0.000000  0.000000
                       1.000000  1.000000  1.000000  1.000000  1.000000  1.000000
                       1.000000  1.000000  1.000000  1.000000  1.000000  1.000000
                       1.000000  1.000000  1.000000  1.000000  1.000000  1.000000
                       1.000000  1.000000  1.000000  1.000000  1.000000  1.000000
                       1.000000  1.000000  1.000000  1.000000  1.000000  1.000000
                       1.000000  1.000000  1.000000  0.000000  0.000000  0.000000
                       0.000000  0.000000  0.000000  0.000000  0.000000  0.000000
                       1.000000  1.000000  1.000000  1.000000  1.000000  1.000000
                       1.000000  1.000000  1.000000  1.000000  1.000000  1.000000
                       1.000000  1.000000  1.000000  1.000000  1.000000  1.000000
                       1.000000  1.000000  1.000000  1.000000  1.000000  1.000000
                       1.000000  1.000000  1.000000  1.000000  1.000000  1.000000
                       1.000000  1.000000  1.000000  0.000000  0.000000  0.000000
                       0.000000  0.000000  0.000000  0.000000  0.000000  0.000000
                       1.000000  1.000000  1.000000  1.000000  1.000000  1.000000
                       1.000000  1.000000  1.000000  1.000000  1.000000  1.000000
                       1.000000  1.000000  1.000000  1.000000  1.000000  1.000000
                       1.000000  1.000000  1.000000  1.000000  1.000000  1.000000
                       1.000000  1.000000  1.000000  1.000000  1.000000  1.000000
                       1.000000  1.000000  1.000000  0.000000  0.000000  0.000000
                       0.000000  0.000000  0.000000  0.000000  0.000000  0.000000
                       1.000000  1.000000  1.000000  1.000000  1.000000  1.000000
                       1.000000  1.000000  1.000000  1.000000  1.000000  1.000000
                       1.000000  1.000000  1.000000  1.000000  1.000000  1.000000
                       1.000000  1.000000  1.000000  1.000000  1.000000  1.000000
                       1.000000  1.000000  1.000000  1.000000  1.000000  1.000000
                       1.000000  1.000000  1.000000  0.000000  0.000000  0.000000
                       0.000000  0.000000  0.000000  0.000000  0.000000  0.000000
                       1.000000  1.000000  1.000000  1.000000  1.000000  1.000000
                       1.000000  1.000000  1.000000  1.000000  1.000000  1.000000
                       1.000000  1.000000  1.000000  1.000000  1.000000  1.000000
                       1.000000  1.000000  1.000000  1.000000  1.000000  1.000000
                       1.000000  1.000000  1.000000  1.000000  1.000000  1.000000
                       1.000000  1.000000  1.000000  0.000000  0.000000  0.000000
                       0.000000  0.000000  0.000000  0.000000  0.000000  0.000000
                       1.000000  1.000000  1.000000  1.000000  1.000000  1.000000
                       1.000000  1.000000  1.000000  1.000000  1.000000  1.000000
                       1.000000  1.000000  1.000000  1.000000  1.000000  1.000000
                       1.000000  1.000000  1.000000  1.000000  1.000000  1.000000
                       1.000000  1.000000  1.000000  1.000000  1.000000  1.000000
                       1.000000  1.000000  1.000000  0.000000  0.000000  0.000000
                       0.000000  0.000000  0.000000  0.000000  0.000000  0.000000
                       1.000000  1.000000  1.000000  1.000000  1.000000  1.000000
                       1.000000  1.000000  1.000000  1.000000  1.000000  1.000000
                       1.000000  1.000000  1.000000  1.000000  1.000000  1.000000
                       1.000000  1.000000  1.000000  1.000000  1.000000  1.000000
                       1.000000  1.000000  1.000000  1.000000  1.000000  1.000000
                       1.000000  1.000000  1.000000  0.000000  0.000000  0.000000
                       0.000000  0.000000  0.000000  0.000000  0.000000  0.000000
                       1.000000  1.000000  1.000000  1.000000  1.000000  1.000000
                       1.000000  1.000000  1.000000  1.000000  1.000000  1.000000
                       1.000000  1.000000  1.000000  1.000000  1.000000  1.000000
                       1.000000  1.000000  1.000000  1.000000  1.000000  1.000000
                       1.000000  1.000000  1.000000  1.000000  1.000000  1.000000
                       1.000000  1.000000  1.000000  0.000000  0.000000  0.000000
                       0.000000  0.000000  0.000000  0.000000  0.000000  0.000000
                       1.000000  1.000000  1.000000  1.000000  1.000000  1.000000
                       1.000000  1.000000  1.000000  1.000000  1.000000  1.000000
                       1.000000  1.000000  1.000000  1.000000  1.000000  1.000000
                       1.000000  1.000000  1.000000  1.000000  1.000000  1.000000
                       1.000000  1.000000  1.000000  1.000000  1.000000  1.000000
                       1.000000  1.000000  1.000000  0.000000  0.000000  0.000000
                       0.000000  0.000000  0.000000  0.000000  0.000000  0.000000
                       1.000000  1.000000  1.000000  1.000000  1.000000  1.000000
                       1.000000  1.000000  1.000000  1.000000  1.000000  1.000000
                       1.000000  1.000000  1.000000  1.000000  1.000000  1.000000
                       1.000000  1.000000  1.000000  1.000000  1.000000  1.000000
                       1.000000  1.000000  1.000000  1.000000  1.000000  1.000000
                       1.000000  1.000000  1.000000  0.000000  0.000000  0.000000
                       0.000000  0.000000  0.000000  0.000000  0.000000  0.000000
                       1.000000  1.000000  1.000000  1.000000  1.000000  1.000000
                       1.000000  1.000000  1.000000  1.000000  1.000000  1.000000
                       1.000000  1.000000  1.000000  1.000000  1.000000  1.000000
                       1.000000  1.000000  1.000000  1.000000  1.000000  1.000000
                       1.000000  1.000000  1.000000  1.000000  1.000000  1.000000
                       1.000000  1.000000  1.000000  0.000000  0.000000  0.000000
                       0.000000  0.000000  0.000000  0.000000  0.000000  0.000000
                       1.000000  1.000000  1.000000  1.000000  1.000000  1.000000
                       1.000000  1.000000  1.000000  1.000000  1.000000  1.000000
                       1.000000  1.000000  1.000000  1.000000  1.000000  1.000000
                       1.000000  1.000000  1.000000  1.000000  1.000000  1.000000
                       1.000000  1.000000  1.000000  1.000000  1.000000  1.000000
                       1.000000  1.000000  1.000000  0.000000  0.000000  0.000000
                       0.000000  0.000000  0.000000  0.000000  0.000000  0.000000
                       1.000000  1.000000  1.000000  1.000000  1.000000  1.000000
                       1.000000  1.000000  1.000000  1.000000  1.000000  1.000000
                       1.000000  1.000000  1.000000  1.000000  1.000000  1.000000
                       1.000000  1.000000  1.000000  1.000000  1.000000  1.000000
                       1.000000  1.000000  1.000000  1.000000  1.000000  1.000000
                       1.000000  1.000000  1.000000  0.000000  0.000000  0.000000
                       0.000000  0.000000  0.000000  0.000000  0.000000  0.000000
                       1.000000  1.000000  1.000000  1.000000  1.000000  1.000000
                       1.000000  1.000000  1.000000  1.000000  1.000000  1.000000
                       1.000000  1.000000  1.000000  1.000000  1.000000  1.000000
                       1.000000  1.000000  1.000000  1.000000  1.000000  1.000000
                       1.000000  1.000000  1.000000  1.000000  1.000000  1.000000
                       1.000000  1.000000  1.000000  0.000000  0.000000  0.000000
                       0.000000  0.000000  0.000000  0.000000  0.000000  0.000000
                       1.000000  1.000000  1.000000  1.000000  1.000000  1.000000
                       1.000000  1.000000  1.000000  1.000000  1.000000  1.000000
                       1.000000  1.000000  1.000000  1.000000  1.000000  1.000000
                       1.000000  1.000000  1.000000  1.000000  1.000000  1.000000
                       1.000000  1.000000  1.000000  1.000000  1.000000  1.000000
                       1.000000  1.000000  1.000000  0.000000  0.000000  0.000000
                       0.000000  0.000000  0.000000  0.000000  0.000000  0.000000
                       1.000000  1.000000  1.000000  1.000000  1.000000  1.000000
                       1.000000  1.000000  1.000000  1.000000  1.000000  1.000000
                       1.000000  1.000000  1.000000  1.000000  1.000000  1.000000
                       1.000000  1.000000  1.000000  1.000000  1.000000  1.000000
                       1.000000  1.000000  1.000000  1.000000  1.000000  1.000000
                       1.000000  1.000000  1.000000  0.000000  0.000000  0.000000
                       0.000000  0.000000  0.000000  0.000000  0.000000  0.000000
                       1.000000  1.000000  1.000000  1.000000  1.000000  1.000000
                       1.000000  1.000000  1.000000  1.000000  1.000000  1.000000
                       1.000000  1.000000  1.000000  1.000000  1.000000  1.000000
                       1.000000  1.000000  1.000000  1.000000  1.000000  1.000000
                       1.000000  1.000000  1.000000  1.000000  1.000000  1.000000
                       1.000000  1.000000  1.000000  0.000000  0.000000  0.000000
                       0.000000  0.000000  0.000000  0.000000  0.000000  0.000000
                       1.000000  1.000000  1.000000  1.000000  1.000000  1.000000
                       1.000000  1.000000  1.000000  1.000000  1.000000  1.000000
                       1.000000  1.000000  1.000000  1.000000  1.000000  1.000000
                       1.000000  1.000000  1.000000  1.000000  1.000000  1.000000
                       1.000000  1.000000  1.000000  1.000000  1.000000  1.000000
                       1.000000  1.000000  1.000000  0.000000  0.000000  0.000000
                       0.000000  0.000000  0.000000  0.000000  0.000000  0.000000
                       1.000000  1.000000  1.000000  1.000000  1.000000  1.000000
                       1.000000  1.000000  1.000000  1.000000  1.000000  1.000000
                       1.000000  1.000000  1.000000  1.000000  1.000000  1.000000
                       1.000000  1.000000  1.000000  1.000000  1.000000  1.000000
                       1.000000  1.000000  1.000000  1.000000  1.000000  1.000000
                       1.000000  1.000000  1.000000  0.000000  0.000000  0.000000
                       0.000000  0.000000  0.000000  0.000000  0.000000  0.000000
                       1.000000  1.000000  1.000000  1.000000  1.000000  1.000000
                       1.000000  1.000000  1.000000  1.000000  1.000000  1.000000
                       1.000000  1.000000  1.000000  1.000000  1.000000  1.000000
                       1.000000  1.000000  1.000000  1.000000  1.000000  1.000000
                       1.000000  1.000000  1.000000  1.000000  1.000000  1.000000
                       1.000000  1.000000  1.000000  0.000000  0.000000  0.000000
                       0.000000  0.000000  0.000000  0.000000  0.000000  0.000000
           occopt           7
          optcell           6
        pawecutdg      4.00000000E+01 Hartree
          pawovlp      1.0000000000E+01
          spgroup           1
           spinat      0.0000000000E+00  0.0000000000E+00  1.0000000000E+00
                       0.0000000000E+00  0.0000000000E+00  0.0000000000E+00
                       0.0000000000E+00  0.0000000000E+00  0.0000000000E+00
                       0.0000000000E+00  0.0000000000E+00  0.0000000000E+00
                       0.0000000000E+00  0.0000000000E+00  0.0000000000E+00
                       0.0000000000E+00  0.0000000000E+00  0.0000000000E+00
                       0.0000000000E+00  0.0000000000E+00  0.0000000000E+00
                       0.0000000000E+00  0.0000000000E+00  0.0000000000E+00
                       0.0000000000E+00  0.0000000000E+00  0.0000000000E+00
                       0.0000000000E+00  0.0000000000E+00  0.0000000000E+00
                       0.0000000000E+00  0.0000000000E+00  0.0000000000E+00
                       0.0000000000E+00  0.0000000000E+00  0.0000000000E+00
                       0.0000000000E+00  0.0000000000E+00  0.0000000000E+00
                       0.0000000000E+00  0.0000000000E+00  0.0000000000E+00
                       0.0000000000E+00  0.0000000000E+00  0.0000000000E+00
                       0.0000000000E+00  0.0000000000E+00  0.0000000000E+00
                       0.0000000000E+00  0.0000000000E+00  0.0000000000E+00
                       0.0000000000E+00  0.0000000000E+00 -1.0000000000E+00
          strfact      2.00000000E+02
           tolvrs      1.00000000E-06
            typat      2  1  1  1  1  1  1  1  1  1  1  1  1  1  1  1  1  2
           useylm           1
              wtk        0.03333    0.06667    0.06667    0.06667    0.06667    0.06667
                         0.06667    0.06667    0.06667    0.06667    0.06667    0.06667
                         0.06667    0.06667    0.06667    0.03333
           xangst      2.1924687653E-06 -8.9347127982E+00  1.2253261414E+00
                      -6.3335522880E-06 -7.8374663590E+00  1.2252914015E+00
                      -1.2466279888E-05 -7.1553103483E+00 -9.0703680259E-03
                      -2.4889138031E-05 -5.7095725410E+00 -9.0145181006E-03
                      -3.0871693702E-05 -5.0013301057E+00  1.2253608862E+00
                      -4.2554247256E-05 -3.5682760068E+00  1.2253671991E+00
                      -4.7331677516E-05 -2.8569447694E+00 -8.9956653736E-03
                      -5.1814279312E-05 -1.4267271463E+00 -8.9761860125E-03
                      -5.0440741501E-05 -7.1470430595E-01  1.2253949192E+00
                      -3.9645629859E-05  7.1487653105E-01  1.2253974953E+00
                      -3.1339882842E-05  1.4268988477E+00 -8.9725857920E-03
                      -1.2927341998E-05  2.8571142755E+00 -8.9900137798E-03
                      -3.8630326290E-06  3.5684443157E+00  1.2253733133E+00
                       1.1398425826E-05  5.0014956819E+00  1.2253679131E+00
                       1.7259567710E-05  5.7097392667E+00 -9.0075717678E-03
                       2.3882826847E-05  7.1554797931E+00 -9.0650236494E-03
                       2.4511032039E-05  7.8376359584E+00  1.2252964978E+00
                       2.2583175635E-05  8.9348828407E+00  1.2253293079E+00
            xcart      4.1431655213E-06 -1.6884160265E+01  2.3155308307E+00
                      -1.1968679273E-05 -1.4810664994E+01  2.3154651818E+00
                      -2.3557854884E-05 -1.3521576954E+01 -1.7140511493E-02
                      -4.7033654562E-05 -1.0789528438E+01 -1.7034970430E-02
                      -5.8339046355E-05 -9.4511441999E+00  2.3155964889E+00
                      -8.0415873105E-05 -6.7430644194E+00  2.3156084185E+00
                      -8.9443907915E-05 -5.3988431909E+00 -1.6999343939E-02
                      -9.7914797673E-05 -2.6961235729E+00 -1.6962533281E-02
                      -9.5319187377E-05 -1.3505954042E+00  2.3156608019E+00
                      -7.4919382799E-05  1.3509208625E+00  2.3156656700E+00
                      -5.9223795608E-05  2.6964480415E+00 -1.6955729851E-02
                      -2.4429136002E-05  5.3991635111E+00 -1.6988663975E-02
                      -7.3000737112E-06  6.7433824771E+00  2.3156199727E+00
                       2.1539903157E-05  9.4514570936E+00  2.3156097678E+00
                       3.2615856144E-05  1.0789843504E+01 -1.7021843763E-02
                       4.5132002020E-05  1.3521897158E+01 -1.7130412085E-02
                       4.6319137788E-05  1.4810985491E+01  2.3154748124E+00
                       4.2676017161E-05  1.6884481598E+01  2.3155368145E+00
             xred      1.4616458439E-07 -2.5527750852E-01  4.9634001573E-01
                      -4.2223681918E-07 -2.2392761026E-01  4.9632594372E-01
                      -8.3108532585E-07 -2.0443743852E-01 -3.6741129211E-03
                      -1.6592758687E-06 -1.6313064403E-01 -3.6514899215E-03
                      -2.0581129135E-06 -1.4289514588E-01  4.9635408973E-01
                      -2.8369498171E-06 -1.0195074305E-01  4.9635664688E-01
                      -3.1554451678E-06 -8.1626993411E-02 -3.6438532911E-03
                      -3.4542852875E-06 -4.0763632751E-02 -3.6359628316E-03
                      -3.3627161001E-06 -2.0420123027E-02  4.9636787540E-01
                      -2.6430419906E-06  2.0425043744E-02  4.9636891889E-01
                      -2.0893255228E-06  4.0768538506E-02 -3.6345044986E-03
                      -8.6182279989E-07  8.1631836443E-02 -3.6415640132E-03
                      -2.5753550862E-07  1.0195555188E-01  4.9635912355E-01
                       7.5989505505E-07  1.4289987663E-01  4.9635693610E-01
                       1.1506378473E-06  1.6313540762E-01 -3.6486761866E-03
                       1.5921884565E-06  2.0444227980E-01 -3.6719480869E-03
                       1.6340688026E-06  2.2393245595E-01  4.9632800807E-01
                       1.5055450423E-06  2.5528236688E-01  4.9634129838E-01
            znucl        6.00000    1.00000

================================================================================

 chkinp: Checking input parameters for consistency.
 DATA TYPE INFORMATION: 
 REAL:      Data type name: REAL(DP) 
            Kind value:      8
            Precision:      15
            Smallest nonnegligible quantity relative to 1:  0.22204460E-15
            Smallest positive number:                       0.22250739-307
            Largest representable number:                   0.17976931+309
 INTEGER:   Data type name: INTEGER(default) 
            Kind value: 4
            Bit size:   32
            Largest representable number: 2147483647
 LOGICAL:   Data type name: LOGICAL 
            Kind value: 4
 CHARACTER: Data type name: CHARACTER             Kind value: 1

  ==== OpenMP parallelism is OFF ====
 
  MPI-IO support is OFF

================================================================================
== DATASET  1 ==================================================================
-   nproc =    1


 getdim_nloc : deduce lmnmax  =   8, lnmax  =   4,
                      lmnmaxso=   8, lnmaxso=   4.
 Exchange-correlation functional for the present dataset will be:
  GGA: Perdew-Burke-Ernzerhof functional - ixc=11
 Citation for XC functional:
  J.P.Perdew, K.Burke, M.Ernzerhof, PRL 77, 3865 (1996)

 Unit cell volume ucvol=  8.7463795E+03 bohr^3
 Angles (23,13,12)=  9.00000000E+01  9.00000000E+01  9.00000000E+01 degrees

 Coarse grid specifications (used for wave-functions):

 getcut: wavevector=  0.0000  0.0000  0.0000  ngfft= 120 270  20
         ecut(hartree)=     18.515   => boxcut(ratio)=   2.10751

 Fine grid specifications (used for densities):

 getcut: wavevector=  0.0000  0.0000  0.0000  ngfft= 192 450  32
         ecut(hartree)=     52.900   => boxcut(ratio)=   2.06880
- pspini: atom type   1  psp file is ./6c-gga-uspp.paw
- pspatm: opening atomic psp file    ./6c-gga-uspp.paw
- C  (US d-loc) - PAW data extracted from US-psp (D.Vanderbilt) - generated by USpp2Abinit v2.1.4
-  6.00000   4.00000  20070502                znucl, zion, pspdat
    7   11    1    0       560   0.00000      pspcod,pspxc,lmax,lloc,mmax,r2well
 Pseudopotential format is: paw3
 basis_size (lnmax)=  4 (lmn_size=  8), orbitals=   0   0   1   1
 Spheres core radius: rc_sph= 1.55500091
 4 radial meshes are used:
  - mesh 1: r(i)=AA*[exp(BB*(i-1))-1], size= 560 , AA= 0.15198E-03 BB= 0.16667E-01
  - mesh 2: r(i)=AA*[exp(BB*(i-1))-1], size= 556 , AA= 0.15198E-03 BB= 0.16667E-01
  - mesh 3: r(i)=AA*[exp(BB*(i-1))-1], size= 576 , AA= 0.15198E-03 BB= 0.16667E-01
  - mesh 4: r(i)=AA*[exp(BB*(i-1))-1], size= 666 , AA= 0.15198E-03 BB= 0.16667E-01
 Shapefunction is BESSEL type: shapef(r,l)=aa(1,l)*jl(q(1,l)*r)+aa(2,l)*jl(q(2,l)*r)
 Radius for shape functions = sphere core radius
 Radial grid used for partial waves is grid 1
 Radial grid used for projectors is grid  2
 Radial grid used for (t)core density is grid 3
 Radial grid used for Vloc is grid 4
 Compensation charge density is taken into account in XC energy/potential
 beta integral value:      -0.478876E+01
 pspatm: atomic psp has been read  and splines computed

- pspini: atom type   2  psp file is ./1h-gga-uspp.paw
- pspatm: opening atomic psp file    ./1h-gga-uspp.paw
- hydrogen - PAW data extracted from US-psp (D.Vanderbilt) - generated by USpp2Abinit v2.1.4
-  1.00000   1.00000  20070502                znucl, zion, pspdat
    7   11    0    0       354   0.00000      pspcod,pspxc,lmax,lloc,mmax,r2well
 Pseudopotential format is: paw3
 basis_size (lnmax)=  2 (lmn_size=  2), orbitals=   0   0
 Spheres core radius: rc_sph= 0.90082634
 3 radial meshes are used:
  - mesh 1: r(i)=AA*[exp(BB*(i-1))-1], size= 354 , AA= 0.24788E-02 BB= 0.16949E-01
  - mesh 2: r(i)=AA*[exp(BB*(i-1))-1], size= 350 , AA= 0.24788E-02 BB= 0.16949E-01
  - mesh 3: r(i)=AA*[exp(BB*(i-1))-1], size= 490 , AA= 0.24788E-02 BB= 0.16949E-01
 Shapefunction is BESSEL type: shapef(r,l)=aa(1,l)*jl(q(1,l)*r)+aa(2,l)*jl(q(2,l)*r)
 Radius for shape functions = sphere core radius
 Radial grid used for partial waves is grid 1
 Radial grid used for projectors is grid  2
 Radial grid used for (t)core density is grid 1
 Radial grid used for Vloc is grid 3
 Compensation charge density is taken into account in XC energy/potential
 beta integral value:      -0.326853E+00
 pspatm: atomic psp has been read  and splines computed

   4.66089465E+03                                ecore*ucvol(ha*bohr**3)
 ==== Info on pseudopotentials ====
  PAW calculation
  Number of pseudopotentials ..    2
  Number of types of atoms   ..    2
  Scalar calculation (no spin-orbit term)
  Nonlocal part applied using real spherical harmonics
  Max number of non-local projectors over l and type   2
  Highest angular momentum +1 .......   2
  Max number of (l,n)   components ..   4
  Max number of (l,m,n) components ..   8

 Pseudo-Core Charge Info: 
   Number of radial points for pseudo-core charge ..    1
   XC core-correction treatment (optnlxccc) ........    1
   Radius for pseudo-core charge for each type ..... 

  - Atom type    1 has pseudo-core radius ..  2.2067
  - Atom type    2 has pseudo-core radius ..  0.9807

 Info on the Q-grid used for form factors in spline form: 
   Number of q-points for radial functions ffspl ..  12812
   Number of q-points for vlspl ...................  21656
   vloc is computed in Reciprocal Space

  XC functional for type 1 is 11
  XC functional for type 2 is 11

 newkpt: spin channel isppol2 =     1
 wfconv:    42 bands initialized randomly with npw= 16748, for ikpt=     1
 wfconv:    42 bands initialized randomly with npw= 33495, for ikpt=     2
 wfconv:    42 bands initialized randomly with npw= 33439, for ikpt=     3
 wfconv:    42 bands initialized randomly with npw= 33449, for ikpt=     4
 wfconv:    42 bands initialized randomly with npw= 33469, for ikpt=     5
 wfconv:    42 bands initialized randomly with npw= 33425, for ikpt=     6
 wfconv:    42 bands initialized randomly with npw= 33389, for ikpt=     7
 wfconv:    42 bands initialized randomly with npw= 33383, for ikpt=     8
 wfconv:    42 bands initialized randomly with npw= 33317, for ikpt=     9
 wfconv:    42 bands initialized randomly with npw= 33271, for ikpt=    10
 wfconv:    42 bands initialized randomly with npw= 33241, for ikpt=    11
 wfconv:    42 bands initialized randomly with npw= 33183, for ikpt=    12
 wfconv:    42 bands initialized randomly with npw= 33103, for ikpt=    13
 wfconv:    42 bands initialized randomly with npw= 33027, for ikpt=    14
 wfconv:    42 bands initialized randomly with npw= 32961, for ikpt=    15
 wfconv:    42 bands initialized randomly with npw= 16457, for ikpt=    16
 newkpt: spin channel isppol2 =     2
 wfconv:    42 bands initialized randomly with npw= 16748, for ikpt=     1
 wfconv:    42 bands initialized randomly with npw= 33495, for ikpt=     2
 wfconv:    42 bands initialized randomly with npw= 33439, for ikpt=     3
 wfconv:    42 bands initialized randomly with npw= 33449, for ikpt=     4
 wfconv:    42 bands initialized randomly with npw= 33469, for ikpt=     5
 wfconv:    42 bands initialized randomly with npw= 33425, for ikpt=     6
 wfconv:    42 bands initialized randomly with npw= 33389, for ikpt=     7
 wfconv:    42 bands initialized randomly with npw= 33383, for ikpt=     8
 wfconv:    42 bands initialized randomly with npw= 33317, for ikpt=     9
 wfconv:    42 bands initialized randomly with npw= 33271, for ikpt=    10
 wfconv:    42 bands initialized randomly with npw= 33241, for ikpt=    11
 wfconv:    42 bands initialized randomly with npw= 33183, for ikpt=    12
 wfconv:    42 bands initialized randomly with npw= 33103, for ikpt=    13
 wfconv:    42 bands initialized randomly with npw= 33027, for ikpt=    14
 wfconv:    42 bands initialized randomly with npw= 32961, for ikpt=    15
 wfconv:    42 bands initialized randomly with npw= 16457, for ikpt=    16
_setup2: Arith. and geom. avg. npw (full set) are   33290.433   33289.954
 initro: for itypat=  1, take decay length=      0.7000,
 initro: indeed, coreel=      2.0000, nval=  4 and densty=  0.0000E+00.
 initro: for itypat=  2, take decay length=      0.6000,
 initro: indeed, coreel=      0.0000, nval=  1 and densty=  0.0000E+00.

================================================================================

=== [ionmov= 2] Broyden-Fletcher-Goldfard-Shanno method (forces)            
================================================================================

--- Iteration: ( 1/80) Internal Cycle: (1/1)
--------------------------------------------------------------------------------

 Cartesian coordinates (xcart) [bohr]
  4.14316552132293E-06 -1.68841602645864E+01  2.31553083071151E+00
 -1.19686792726313E-05 -1.48106649942144E+01  2.31546518181463E+00
 -2.35578548842203E-05 -1.35215769540896E+01 -1.71405114934336E-02
 -4.70336545621786E-05 -1.07895284383340E+01 -1.70349704300745E-02
 -5.83390463551105E-05 -9.45114419992901E+00  2.31559648886805E+00
 -8.04158731049404E-05 -6.74306441939879E+00  2.31560841852016E+00
 -8.94439079153010E-05 -5.39884319094613E+00 -1.69993439391864E-02
 -9.79147976725223E-05 -2.69612357286047E+00 -1.69625332814638E-02
 -9.53191873765691E-05 -1.35059540423961E+00  2.31566080191753E+00
 -7.49193827992636E-05  1.35092086251182E+00  2.31566567004102E+00
 -5.92237956081018E-05  2.69644804148310E+00 -1.69557298507008E-02
 -2.44291360023707E-05  5.39916351105298E+00 -1.69886639746901E-02
 -7.30007371121123E-06  6.74338247712552E+00  2.31561997268368E+00
  2.15399031571508E-05  9.45145709360113E+00  2.31560976778461E+00
  3.26158561438962E-05  1.07898435042463E+01 -1.70218437634546E-02
  4.51320020199587E-05  1.35218971583562E+01 -1.71304120854976E-02
  4.63191377880956E-05  1.48109854906327E+01  2.31547481242592E+00
  4.26760171610058E-05  1.68844815983423E+01  2.31553681452931E+00
 Reduced coordinates (xred)
  1.46164584386272E-07 -2.55277508519990E-01  4.96340015733942E-01
 -4.22236819177248E-07 -2.23927610257134E-01  4.96325943723291E-01
 -8.31085325845766E-07 -2.04437438522849E-01 -3.67411292110694E-03
 -1.65927586872665E-06 -1.63130644028565E-01 -3.65148992151071E-03
 -2.05811291347192E-06 -1.42895145877138E-01  4.96354089729424E-01
 -2.83694981708559E-06 -1.01950743051425E-01  4.96356646881173E-01
 -3.15544516775332E-06 -8.16269934114255E-02 -3.64385329114786E-03
 -3.45428528749549E-06 -4.07636327514270E-02 -3.63596283156474E-03
 -3.36271610010252E-06 -2.04201230271421E-02  4.96367875397733E-01
 -2.64304199063446E-06  2.04250437442849E-02  4.96368918892580E-01
 -2.08932552282677E-06  4.07685385057128E-02 -3.63450449860403E-03
 -8.61822799886948E-07  8.16318364428541E-02 -3.64156401316640E-03
 -2.57535508622155E-07  1.01955551877139E-01  4.96359123545974E-01
  7.59895055048879E-07  1.42899876625709E-01  4.96356936099495E-01
  1.15063784732162E-06  1.63135407619994E-01 -3.64867618660801E-03
  1.59218845645348E-06  2.04442279802849E-01 -3.67194808692404E-03
  1.63406880257941E-06  2.23932455954277E-01  4.96328008069702E-01
  1.50554504230698E-06  2.55282366877133E-01  4.96341298380746E-01
 Scale of Primitive Cell (acell) [bohr]
  2.83458919930000E+01  6.61404146510000E+01  4.66521085810000E+00
 Real space primitive translations (rprimd) [bohr]
  2.83458919930000E+01  0.00000000000000E+00  0.00000000000000E+00
  4.04993235483129E-15  6.61404146510000E+01  0.00000000000000E+00
  2.85661777235982E-16  2.85661777235982E-16  4.66521085810000E+00
 Unitary Cell Volume (ucvol) [Bohr^3]=  8.74637953724829E+03
 Angles (23,13,12)= [degrees]
  9.00000000000000E+01  9.00000000000000E+01  9.00000000000000E+01
 Lengths [Bohr]
  2.83458919930000E+01  6.61404146510000E+01  4.66521085810000E+00

---SELF-CONSISTENT-FIELD CONVERGENCE--------------------------------------------
 FFT (fine) grid used in SCF cycle:

 getcut: wavevector=  0.0000  0.0000  0.0000  ngfft= 192 450  32
         ecut(hartree)=     40.000   => boxcut(ratio)=   2.37912

 getcut : COMMENT -
  Note that boxcut > 2.2 ; recall that boxcut=Gcut(box)/Gcut(sphere) = 2
  is sufficient for exact treatment of convolution.
  Such a large boxcut is a waste : you could raise ecut
  e.g. ecut=   56.602024 Hartrees makes boxcut=2


 chkpawovlp : WARNING -
  PAW SPHERES ARE OVERLAPPING !
   Distance between atoms   1 and   2 is  :   2.07350
   PAW radius of the sphere around atom   1 is:   0.90083
   PAW radius of the sphere around atom   2 is:   1.55500
   This leads to a (voluminal) overlap ratio of  7.96 %

  COMPENSATION DENSITIES ARE OVERLAPPING !!!!
   Distance between atoms   1 and   2 is  :   2.07350
   Compensation radius around atom   1 is:   0.90083
   Compensation radius around atom   2 is:   1.55500
   This leads to a (voluminal) overlap ratio of  7.96 %
  THIS IS DANGEROUS !, as PAW formalism assume non-overlapping compensation densities.

  => Note that other spheres are overlapping !

       Overlap ratio seems to be acceptable (less than value
       of "pawovlp" input parameter): execution will continue.
       But be aware that results might be approximate,
       and even inaccurate (depending on your physical system) !

--- !WARNING
src_file: m_ewald.F90
src_line: 145
message: |
    Very large box of G neighbors in ewald: you probably do not want to do this.
     If you have a metal consider setting dipdip 0.  ng =         30
...


--- !WARNING
src_file: m_ewald.F90
src_line: 145
message: |
    Very large box of G neighbors in ewald: you probably do not want to do this.
     If you have a metal consider setting dipdip 0.  ng =         40
...


--- !WARNING
src_file: m_ewald.F90
src_line: 145
message: |
    Very large box of G neighbors in ewald: you probably do not want to do this.
     If you have a metal consider setting dipdip 0.  ng =         50
...

 average electrostatic smooth potential [Ha] , [eV]      0.000000        0.000000

 ****** Psp strength Dij in Ha (atom      1) *****
 Component up:
  -0.06111   0.11634
   0.11634  -0.20516
 Component down:
  -0.05373   0.09942
   0.09942  -0.16657

 ****** Psp strength Dij in Ha (atom     18) *****
 Component up:
  -0.05373   0.09942
   0.09942  -0.16657
 Component down:
  -0.06111   0.11634
   0.11634  -0.20516


 ITER STEP NUMBER     1
 vtorho : nnsclo_now=2, note that nnsclo,dbl_nnsclo,istep=0 0 1
 non-scf iterations; kpt #     1  , k= (  0.00000  0.00000  0.00000  ), band residuals:
 res:  2.56E-01  7.19E-01  6.54E-01  1.86E-01  2.36E-01  2.44E-01  2.05E-01  1.95E-01
 res:  2.18E-01  2.30E-01  1.99E-01  1.89E-01  1.98E-01  2.24E-01  2.23E-01  1.93E-01
 res:  1.81E-01  1.83E-01  1.84E-01  1.94E-01  1.98E-01  1.75E-01  1.96E-01  2.04E-01
 res:  1.52E-01  1.40E-01  1.48E-01  1.75E-01  1.44E-01  7.83E-02  1.13E-01  1.05E-01
 res:  1.06E-01  6.08E-02  1.04E-01  6.84E-02  5.88E-02  7.65E-02  7.99E-02  7.40E-02
 res:  6.06E-02  8.12E-02
 ene: -7.66E-01 -7.45E-01 -7.25E-01 -6.91E-01 -6.82E-01 -6.60E-01 -6.18E-01 -6.09E-01
 ene: -5.30E-01 -4.83E-01 -4.40E-01 -4.17E-01 -3.80E-01 -3.66E-01 -3.57E-01 -3.54E-01
 ene: -3.34E-01 -3.32E-01 -3.24E-01 -3.11E-01 -3.04E-01 -2.92E-01 -2.67E-01 -2.47E-01
 ene: -2.47E-01 -2.27E-01 -2.17E-01 -1.91E-01 -1.76E-01 -1.58E-01 -1.34E-01 -3.60E-02
 ene: -1.32E-02  7.38E-02  9.06E-02  1.02E-01  1.08E-01  1.19E-01  1.31E-01  1.41E-01
 ene:  1.44E-01  1.80E-01
 res:  9.80E-03  6.19E-03  1.00E-02  1.19E-02  1.30E-02  9.51E-03  5.00E-03  1.01E-02
 res:  4.19E-03  8.00E-03  5.51E-03  6.51E-03  5.11E-03  1.34E-03  2.17E-03  2.41E-03
 res:  2.12E-03  2.02E-03  2.87E-03  3.34E-03  3.76E-03  3.96E-03  4.26E-03  5.08E-03
 res:  6.64E-03  3.25E-03  3.14E-03  4.43E-03  3.32E-03  5.92E-03  4.93E-03  7.45E-03
 res:  1.87E-02  1.25E-02  4.28E-03  8.31E-03  6.08E-03  2.52E-03  3.21E-03  5.62E-03
 res:  4.18E-03  7.01E-03
 ene: -8.75E-01 -8.67E-01 -8.53E-01 -8.34E-01 -8.11E-01 -7.81E-01 -7.48E-01 -7.13E-01
 ene: -6.35E-01 -5.96E-01 -5.47E-01 -4.96E-01 -4.45E-01 -4.20E-01 -4.18E-01 -4.12E-01
 ene: -4.10E-01 -4.01E-01 -3.95E-01 -3.95E-01 -3.85E-01 -3.73E-01 -3.64E-01 -3.50E-01
 ene: -3.46E-01 -3.45E-01 -3.24E-01 -3.16E-01 -3.14E-01 -3.10E-01 -2.95E-01 -2.81E-01
 ene: -2.51E-01 -6.38E-02 -7.74E-03  2.86E-02  3.94E-02  4.92E-02  5.34E-02  6.40E-02
 ene:  6.62E-02  7.03E-02
     eigenvalues (hartree) for   42  bands
              after    3 non-SCF iterations with    4 CG line minimizations
 -8.7523E-01 -8.6716E-01 -8.5345E-01 -8.3394E-01 -8.1052E-01 -7.8087E-01
 -7.4751E-01 -7.1338E-01 -6.3514E-01 -5.9558E-01 -5.4669E-01 -4.9649E-01
 -4.4466E-01 -4.1966E-01 -4.1805E-01 -4.1236E-01 -4.1020E-01 -4.0059E-01
 -3.9503E-01 -3.9455E-01 -3.8507E-01 -3.7319E-01 -3.6376E-01 -3.4988E-01
 -3.4615E-01 -3.4536E-01 -3.2409E-01 -3.1630E-01 -3.1446E-01 -3.0970E-01
 -2.9548E-01 -2.8117E-01 -2.5115E-01 -6.3846E-02 -7.7415E-03  2.8640E-02
  3.9389E-02  4.9207E-02  5.3430E-02  6.3968E-02  6.6228E-02  7.0264E-02
 non-scf iterations; kpt #     2  , k= (  0.00000  0.00000  0.03333  ), band residuals:
 res:  3.22E-01  2.68E-01  2.65E-01  2.42E-01  1.98E-01  2.41E-01  2.14E-01  2.00E-01
 res:  2.04E-01  1.95E-01  1.99E-01  1.99E-01  2.13E-01  2.16E-01  2.12E-01  1.99E-01
 res:  1.59E-01  2.05E-01  1.83E-01  1.73E-01  2.01E-01  1.93E-01  1.86E-01  1.82E-01
 res:  1.85E-01  1.61E-01  1.88E-01  1.65E-01  1.37E-01  1.35E-01  1.03E-01  6.96E-02
 res:  1.03E-01  7.99E-02  8.55E-02  7.41E-02  9.15E-02  8.56E-02  6.29E-02  7.33E-02
 res:  7.23E-02  6.91E-02
 ene: -7.82E-01 -7.35E-01 -7.13E-01 -6.99E-01 -6.84E-01 -6.60E-01 -6.21E-01 -5.98E-01
 ene: -5.33E-01 -5.12E-01 -4.44E-01 -4.26E-01 -3.95E-01 -3.71E-01 -3.58E-01 -3.54E-01
 ene: -3.41E-01 -3.28E-01 -3.21E-01 -3.09E-01 -3.03E-01 -2.84E-01 -2.69E-01 -2.62E-01
 ene: -2.43E-01 -2.28E-01 -2.21E-01 -2.09E-01 -1.88E-01 -1.69E-01 -1.34E-01 -1.08E-01
 ene: -7.14E-02  7.02E-02  9.35E-02  9.98E-02  1.09E-01  1.14E-01  1.32E-01  1.45E-01
 ene:  1.53E-01  1.69E-01
 res:  6.33E-03  9.00E-03  1.08E-02  8.51E-03  8.91E-03  1.12E-02  1.29E-02  1.01E-02
 res:  8.68E-03  6.87E-03  7.82E-03  3.77E-03  1.85E-03  1.20E-03  1.80E-03  1.77E-03
 res:  2.80E-03  3.52E-03  2.60E-03  3.23E-03  3.10E-03  2.51E-03  3.04E-03  3.52E-03
 res:  4.36E-03  6.07E-03  4.66E-03  3.89E-03  5.06E-03  5.99E-03  6.88E-03  7.39E-03
 res:  7.23E-03  1.18E-02  6.07E-03  3.18E-03  4.24E-03  5.78E-03  3.49E-03  7.01E-03
 res:  7.55E-03  7.09E-03
 ene: -8.76E-01 -8.66E-01 -8.52E-01 -8.34E-01 -8.09E-01 -7.80E-01 -7.47E-01 -7.12E-01
 ene: -6.35E-01 -5.94E-01 -5.46E-01 -4.96E-01 -4.45E-01 -4.22E-01 -4.20E-01 -4.15E-01
 ene: -4.10E-01 -4.04E-01 -3.96E-01 -3.94E-01 -3.87E-01 -3.72E-01 -3.69E-01 -3.51E-01
 ene: -3.48E-01 -3.45E-01 -3.28E-01 -3.18E-01 -3.14E-01 -3.11E-01 -2.96E-01 -2.81E-01
 ene: -2.52E-01 -6.45E-02 -1.30E-02  3.19E-02  3.85E-02  4.16E-02  5.55E-02  5.68E-02
 ene:  6.02E-02  7.05E-02
     eigenvalues (hartree) for   42  bands
              after    3 non-SCF iterations with    4 CG line minimizations
 -8.7553E-01 -8.6636E-01 -8.5163E-01 -8.3363E-01 -8.0934E-01 -7.8033E-01
 -7.4664E-01 -7.1250E-01 -6.3485E-01 -5.9352E-01 -5.4645E-01 -4.9646E-01
 -4.4540E-01 -4.2154E-01 -4.1973E-01 -4.1460E-01 -4.0973E-01 -4.0399E-01
 -3.9578E-01 -3.9354E-01 -3.8748E-01 -3.7199E-01 -3.6902E-01 -3.5123E-01
 -3.4772E-01 -3.4523E-01 -3.2787E-01 -3.1784E-01 -3.1362E-01 -3.1117E-01
 -2.9621E-01 -2.8050E-01 -2.5161E-01 -6.4518E-02 -1.2951E-02  3.1864E-02
  3.8472E-02  4.1637E-02  5.5472E-02  5.6840E-02  6.0176E-02  7.0452E-02
 non-scf iterations; kpt #     3  , k= (  0.00000  0.00000  0.06667  ), band residuals:
 res:  2.92E-01  2.28E-01  2.34E-01  8.21E-01  2.45E-01  2.36E-01  2.29E-01  2.18E-01
 res:  1.76E-01  1.91E-01  1.85E-01  1.97E-01  1.92E-01  1.60E-01  2.25E-01  1.89E-01
 res:  1.78E-01  1.92E-01  1.91E-01  1.88E-01  2.07E-01  1.82E-01  1.90E-01  1.93E-01
 res:  1.96E-01  1.68E-01  1.55E-01  1.35E-01  1.08E-01  7.93E-02  1.26E-01  1.13E-01
 res:  6.80E-02  9.00E-02  6.56E-02  8.08E-02  6.50E-02  6.38E-02  6.93E-02  5.74E-02
 res:  5.38E-02  7.37E-02
 ene: -7.66E-01 -7.26E-01 -7.05E-01 -6.96E-01 -6.78E-01 -6.31E-01 -5.95E-01 -5.86E-01
 ene: -5.30E-01 -4.98E-01 -4.65E-01 -4.30E-01 -3.89E-01 -3.76E-01 -3.60E-01 -3.52E-01
 ene: -3.45E-01 -3.41E-01 -3.25E-01 -3.17E-01 -3.08E-01 -2.97E-01 -2.84E-01 -2.75E-01
 ene: -2.58E-01 -2.50E-01 -2.31E-01 -2.19E-01 -1.87E-01 -1.46E-01 -1.27E-01 -1.10E-01
 ene: -6.49E-02  9.05E-02  9.42E-02  1.05E-01  1.10E-01  1.22E-01  1.27E-01  1.40E-01
 ene:  1.50E-01  1.77E-01
 res:  4.52E-03  1.12E-02  9.95E-03  9.61E-03  1.09E-02  1.11E-02  1.12E-02  1.56E-02
 res:  1.02E-02  8.35E-03  4.59E-03  4.27E-03  1.77E-03  2.08E-03  3.13E-03  2.84E-03
 res:  2.07E-03  3.76E-03  4.49E-03  2.20E-03  4.32E-03  3.70E-03  2.44E-03  3.61E-03
 res:  5.01E-03  4.31E-03  3.53E-03  3.24E-03  5.60E-03  4.58E-03  7.38E-03  1.02E-02
 res:  9.94E-03  1.74E-02  6.61E-03  4.27E-03  4.85E-03  3.81E-03  4.76E-03  4.81E-03
 res:  4.93E-03  8.13E-03
 ene: -8.73E-01 -8.63E-01 -8.51E-01 -8.30E-01 -8.08E-01 -7.78E-01 -7.45E-01 -7.11E-01
 ene: -6.34E-01 -5.93E-01 -5.46E-01 -4.96E-01 -4.45E-01 -4.29E-01 -4.23E-01 -4.17E-01
 ene: -4.12E-01 -4.07E-01 -3.99E-01 -3.93E-01 -3.91E-01 -3.77E-01 -3.70E-01 -3.57E-01
 ene: -3.52E-01 -3.43E-01 -3.35E-01 -3.23E-01 -3.18E-01 -3.12E-01 -2.99E-01 -2.78E-01
 ene: -2.47E-01 -5.30E-02  7.44E-03  3.59E-02  4.11E-02  4.95E-02  5.40E-02  5.65E-02
 ene:  6.59E-02  7.55E-02
     eigenvalues (hartree) for   42  bands
              after    3 non-SCF iterations with    4 CG line minimizations
 -8.7288E-01 -8.6274E-01 -8.5092E-01 -8.2976E-01 -8.0800E-01 -7.7788E-01
 -7.4450E-01 -7.1111E-01 -6.3364E-01 -5.9301E-01 -5.4601E-01 -4.9558E-01
 -4.4523E-01 -4.2941E-01 -4.2311E-01 -4.1726E-01 -4.1211E-01 -4.0706E-01
 -3.9866E-01 -3.9287E-01 -3.9147E-01 -3.7716E-01 -3.7004E-01 -3.5677E-01
 -3.5165E-01 -3.4267E-01 -3.3535E-01 -3.2317E-01 -3.1807E-01 -3.1153E-01
 -2.9868E-01 -2.7775E-01 -2.4733E-01 -5.3028E-02  7.4443E-03  3.5871E-02
  4.1110E-02  4.9488E-02  5.4044E-02  5.6516E-02  6.5937E-02  7.5474E-02
 non-scf iterations; kpt #     4  , k= (  0.00000  0.00000  0.10000  ), band residuals:
 res:  2.93E-01  7.44E-01  2.09E-01  2.68E-01  2.34E-01  2.63E-01  1.94E-01  2.11E-01
 res:  1.96E-01  2.07E-01  2.52E-01  2.28E-01  2.21E-01  2.18E-01  2.23E-01  1.77E-01
 res:  2.00E-01  1.87E-01  2.15E-01  2.04E-01  2.24E-01  1.80E-01  1.86E-01  1.71E-01
 res:  1.97E-01  1.75E-01  1.72E-01  1.85E-01  1.38E-01  1.72E-01  1.23E-01  9.89E-02
 res:  7.79E-02  1.08E-01  7.46E-02  8.31E-02  6.86E-02  7.03E-02  7.09E-02  5.07E-02
 res:  6.12E-02  6.15E-02
 ene: -7.61E-01 -7.33E-01 -7.08E-01 -6.74E-01 -6.47E-01 -6.28E-01 -5.96E-01 -5.77E-01
 ene: -5.38E-01 -4.93E-01 -4.61E-01 -4.21E-01 -3.92E-01 -3.79E-01 -3.67E-01 -3.52E-01
 ene: -3.47E-01 -3.37E-01 -3.18E-01 -3.08E-01 -2.99E-01 -2.82E-01 -2.73E-01 -2.59E-01
 ene: -2.41E-01 -2.25E-01 -2.18E-01 -1.97E-01 -1.84E-01 -1.73E-01 -1.49E-01 -1.40E-01
 ene: -7.70E-02  5.96E-02  9.79E-02  1.02E-01  1.17E-01  1.20E-01  1.32E-01  1.41E-01
 ene:  1.55E-01  1.65E-01
 res:  4.99E-03  7.90E-03  8.56E-03  8.90E-03  7.50E-03  1.77E-02  1.06E-02  1.26E-02
 res:  8.27E-03  5.47E-03  6.66E-03  4.47E-03  2.35E-03  2.34E-03  2.74E-03  1.73E-03
 res:  3.47E-03  3.06E-03  4.67E-03  2.84E-03  3.58E-03  3.93E-03  5.70E-03  3.52E-03
 res:  4.54E-03  5.71E-03  5.20E-03  5.33E-03  6.24E-03  6.36E-03  7.74E-03  6.91E-03
 res:  9.88E-03  1.06E-02  1.39E-02  4.24E-03  3.17E-03  5.97E-03  4.51E-03  3.87E-03
 res:  4.07E-03  3.78E-03
 ene: -8.71E-01 -8.61E-01 -8.48E-01 -8.28E-01 -8.03E-01 -7.75E-01 -7.41E-01 -7.08E-01
 ene: -6.31E-01 -5.90E-01 -5.44E-01 -4.95E-01 -4.47E-01 -4.43E-01 -4.37E-01 -4.24E-01
 ene: -4.13E-01 -4.10E-01 -4.03E-01 -3.99E-01 -3.89E-01 -3.86E-01 -3.68E-01 -3.66E-01
 ene: -3.59E-01 -3.44E-01 -3.38E-01 -3.34E-01 -3.23E-01 -3.07E-01 -3.02E-01 -2.74E-01
 ene: -2.45E-01 -7.03E-02 -2.30E-02  3.73E-02  4.79E-02  5.54E-02  5.92E-02  6.15E-02
 ene:  7.03E-02  7.34E-02
     eigenvalues (hartree) for   42  bands
              after    3 non-SCF iterations with    4 CG line minimizations
 -8.7073E-01 -8.6084E-01 -8.4757E-01 -8.2805E-01 -8.0346E-01 -7.7498E-01
 -7.4072E-01 -7.0773E-01 -6.3057E-01 -5.9010E-01 -5.4386E-01 -4.9456E-01
 -4.4655E-01 -4.4277E-01 -4.3666E-01 -4.2449E-01 -4.1281E-01 -4.0977E-01
 -4.0272E-01 -3.9894E-01 -3.8851E-01 -3.8573E-01 -3.6760E-01 -3.6565E-01
 -3.5870E-01 -3.4423E-01 -3.3841E-01 -3.3404E-01 -3.2346E-01 -3.0713E-01
 -3.0236E-01 -2.7382E-01 -2.4482E-01 -7.0307E-02 -2.2996E-02  3.7286E-02
  4.7949E-02  5.5360E-02  5.9216E-02  6.1542E-02  7.0347E-02  7.3361E-02
 non-scf iterations; kpt #     5  , k= (  0.00000  0.00000  0.13333  ), band residuals:
 res:  3.00E-01  6.90E-01  8.24E-01  2.35E-01  2.45E-01  2.39E-01  2.47E-01  2.22E-01
 res:  2.08E-01  1.86E-01  2.36E-01  2.08E-01  1.91E-01  1.93E-01  2.26E-01  1.99E-01
 res:  2.08E-01  2.04E-01  2.12E-01  2.07E-01  2.14E-01  1.92E-01  2.00E-01  2.07E-01
 res:  1.90E-01  1.92E-01  1.85E-01  2.03E-01  1.51E-01  9.50E-02  1.88E-01  1.12E-01
 res:  8.01E-02  8.22E-02  8.15E-02  8.25E-02  6.21E-02  7.30E-02  4.89E-02  6.78E-02
 res:  6.93E-02  7.82E-02
 ene: -7.40E-01 -7.19E-01 -7.07E-01 -6.74E-01 -6.44E-01 -6.28E-01 -5.78E-01 -5.66E-01
 ene: -5.07E-01 -4.78E-01 -4.60E-01 -4.22E-01 -4.02E-01 -3.91E-01 -3.81E-01 -3.79E-01
 ene: -3.60E-01 -3.53E-01 -3.46E-01 -3.34E-01 -3.21E-01 -3.14E-01 -3.03E-01 -2.96E-01
 ene: -2.76E-01 -2.63E-01 -2.48E-01 -2.33E-01 -2.27E-01 -1.88E-01 -1.56E-01 -1.32E-01
 ene: -6.36E-02  4.19E-02  1.03E-01  1.10E-01  1.16E-01  1.28E-01  1.33E-01  1.48E-01
 ene:  1.64E-01  1.81E-01
 res:  6.05E-03  1.06E-02  1.33E-02  1.25E-02  1.51E-02  1.47E-02  9.78E-03  1.88E-02
 res:  9.93E-03  8.17E-03  8.84E-03  3.67E-03  2.70E-03  3.70E-03  2.47E-03  4.40E-03
 res:  2.49E-03  2.29E-03  2.05E-03  3.65E-03  3.14E-03  3.79E-03  4.87E-03  2.51E-03
 res:  3.05E-03  4.11E-03  7.62E-03  5.97E-03  5.45E-03  6.47E-03  7.62E-03  9.75E-03
 res:  1.31E-02  5.92E-03  1.38E-02  5.20E-03  4.61E-03  3.86E-03  4.42E-03  4.19E-03
 res:  6.51E-03  6.75E-03
 ene: -8.64E-01 -8.54E-01 -8.42E-01 -8.23E-01 -7.97E-01 -7.68E-01 -7.37E-01 -7.03E-01
 ene: -6.27E-01 -5.87E-01 -5.42E-01 -4.94E-01 -4.60E-01 -4.53E-01 -4.49E-01 -4.40E-01
 ene: -4.25E-01 -4.08E-01 -4.07E-01 -4.00E-01 -3.97E-01 -3.82E-01 -3.79E-01 -3.71E-01
 ene: -3.60E-01 -3.54E-01 -3.47E-01 -3.33E-01 -3.29E-01 -3.08E-01 -3.02E-01 -2.68E-01
 ene: -2.38E-01 -7.57E-02 -1.83E-02  4.24E-02  5.33E-02  5.67E-02  6.14E-02  7.28E-02
 ene:  7.78E-02  8.32E-02
     eigenvalues (hartree) for   42  bands
              after    3 non-SCF iterations with    4 CG line minimizations
 -8.6449E-01 -8.5371E-01 -8.4158E-01 -8.2278E-01 -7.9728E-01 -7.6812E-01
 -7.3702E-01 -7.0342E-01 -6.2659E-01 -5.8724E-01 -5.4159E-01 -4.9439E-01
 -4.6015E-01 -4.5278E-01 -4.4929E-01 -4.3970E-01 -4.2473E-01 -4.0767E-01
 -4.0732E-01 -4.0047E-01 -3.9732E-01 -3.8175E-01 -3.7907E-01 -3.7080E-01
 -3.5977E-01 -3.5417E-01 -3.4724E-01 -3.3254E-01 -3.2946E-01 -3.0811E-01
 -3.0169E-01 -2.6837E-01 -2.3760E-01 -7.5667E-02 -1.8321E-02  4.2429E-02
  5.3285E-02  5.6718E-02  6.1436E-02  7.2806E-02  7.7848E-02  8.3155E-02
 non-scf iterations; kpt #     6  , k= (  0.00000  0.00000  0.16667  ), band residuals:
 res:  3.14E-01  6.16E-01  2.07E-01  2.40E-01  2.43E-01  2.47E-01  2.20E-01  1.94E-01
 res:  1.91E-01  2.13E-01  2.03E-01  2.46E-01  2.11E-01  1.92E-01  2.01E-01  2.09E-01
 res:  1.59E-01  2.21E-01  1.97E-01  2.40E-01  2.11E-01  2.11E-01  1.89E-01  1.97E-01
 res:  2.18E-01  1.88E-01  1.91E-01  2.02E-01  2.03E-01  1.18E-01  9.32E-02  1.62E-01
 res:  1.20E-01  6.16E-02  8.80E-02  7.36E-02  7.07E-02  5.88E-02  7.43E-02  7.08E-02
 res:  6.34E-02  6.50E-02
 ene: -7.41E-01 -7.12E-01 -6.86E-01 -6.75E-01 -6.66E-01 -6.32E-01 -5.85E-01 -5.48E-01
 ene: -5.19E-01 -4.87E-01 -4.56E-01 -4.26E-01 -4.14E-01 -4.02E-01 -3.88E-01 -3.75E-01
 ene: -3.63E-01 -3.53E-01 -3.39E-01 -3.34E-01 -3.22E-01 -3.02E-01 -2.93E-01 -2.76E-01
 ene: -2.60E-01 -2.47E-01 -2.38E-01 -2.25E-01 -2.12E-01 -2.00E-01 -1.45E-01 -1.18E-01
 ene: -8.51E-02  9.21E-02  1.05E-01  1.14E-01  1.32E-01  1.37E-01  1.52E-01  1.59E-01
 ene:  1.78E-01  1.88E-01
 res:  7.82E-03  9.29E-03  9.09E-03  1.26E-02  9.88E-03  1.11E-02  1.03E-02  9.23E-03
 res:  6.84E-03  6.30E-03  5.30E-03  3.00E-03  4.06E-03  2.61E-03  3.88E-03  3.60E-03
 res:  3.99E-03  2.92E-03  3.03E-03  3.94E-03  3.75E-03  5.60E-03  3.56E-03  5.60E-03
 res:  4.95E-03  6.50E-03  7.30E-03  6.19E-03  7.37E-03  5.20E-03  6.72E-03  1.02E-02
 res:  1.15E-02  2.19E-02  1.77E-02  9.67E-03  5.33E-03  7.90E-03  5.72E-03  3.64E-03
 res:  5.05E-03  5.88E-03
 ene: -8.57E-01 -8.49E-01 -8.37E-01 -8.18E-01 -7.94E-01 -7.65E-01 -7.31E-01 -6.97E-01
 ene: -6.23E-01 -5.83E-01 -5.39E-01 -4.95E-01 -4.79E-01 -4.72E-01 -4.61E-01 -4.52E-01
 ene: -4.40E-01 -4.21E-01 -4.12E-01 -4.00E-01 -3.93E-01 -3.90E-01 -3.81E-01 -3.74E-01
 ene: -3.70E-01 -3.54E-01 -3.52E-01 -3.38E-01 -3.26E-01 -3.14E-01 -2.94E-01 -2.61E-01
 ene: -2.31E-01 -6.59E-02 -2.41E-02  4.21E-02  5.40E-02  6.58E-02  7.33E-02  7.62E-02
 ene:  8.56E-02  9.02E-02
     eigenvalues (hartree) for   42  bands
              after    3 non-SCF iterations with    4 CG line minimizations
 -8.5727E-01 -8.4858E-01 -8.3699E-01 -8.1802E-01 -7.9364E-01 -7.6468E-01
 -7.3129E-01 -6.9739E-01 -6.2261E-01 -5.8338E-01 -5.3911E-01 -4.9491E-01
 -4.7869E-01 -4.7155E-01 -4.6145E-01 -4.5245E-01 -4.4031E-01 -4.2066E-01
 -4.1233E-01 -3.9985E-01 -3.9336E-01 -3.8971E-01 -3.8112E-01 -3.7396E-01
 -3.6951E-01 -3.5386E-01 -3.5225E-01 -3.3842E-01 -3.2557E-01 -3.1428E-01
 -2.9427E-01 -2.6099E-01 -2.3062E-01 -6.5906E-02 -2.4078E-02  4.2073E-02
  5.3962E-02  6.5794E-02  7.3270E-02  7.6200E-02  8.5568E-02  9.0212E-02
 non-scf iterations; kpt #     7  , k= (  0.00000  0.00000  0.20000  ), band residuals:
 res:  3.13E-01  2.19E-01  7.33E-01  2.31E-01  2.06E-01  2.08E-01  2.00E-01  2.29E-01
 res:  2.29E-01  2.02E-01  1.99E-01  1.96E-01  1.76E-01  2.12E-01  1.86E-01  2.29E-01
