  ABINIT 8.4.3
  
  Give name for formatted input file: 
zgnr.in
  Give name for formatted output file:
zgnr.out
  Give root name for generic input files:
zgnri
  Give root name for generic output files:
zgnro
  Give root name for generic temporary files:
zgnr

--- !COMMENT
src_file: isfile.F90
src_line: 109
message: |
    Output file zgnr.out
     already exists.
...


--- !COMMENT
src_file: isfile.F90
src_line: 133
message: |
    Renaming old zgnr.out to zgnr.out0004
...


.Version 8.4.3 of ABINIT 
.(sequential version, prepared for a x86_64_linux_gnu5.4 computer) 

.Copyright (C) 1998-2017 ABINIT group . 
 ABINIT comes with ABSOLUTELY NO WARRANTY.
 It is free software, and you are welcome to redistribute it
 under certain conditions (GNU General Public License,
 see ~abinit/COPYING or http://www.gnu.org/copyleft/gpl.txt).

 ABINIT is a project of the Universite Catholique de Louvain,
 Corning Inc. and other collaborators, see ~abinit/doc/developers/contributors.txt .
 Please read ~abinit/doc/users/acknowledgments.html for suggested
 acknowledgments of the ABINIT effort.
 For more information, see http://www.abinit.org .

.Starting date : Mon 28 Aug 2017.
- ( at 13h28 )
  

 ++++++++++++++++++++++++++++++++++++++++++++++++++++++++++++++++++++++++++++++

 === Build Information === 
  Version       : 8.4.3
  Build target  : x86_64_linux_gnu5.4
  Build date    : 20170815

 === Compiler Suite === 
  C compiler       : gnu5.4
  C++ compiler     : gnu5.4
  Fortran compiler : gnu5.4
  CFLAGS           :  -g -O2 -mtune=native -march=native
  CXXFLAGS         :  -g -O2 -mtune=native -march=native
  FCFLAGS          :  -g -ffree-line-length-none
  FC_LDFLAGS       : 

 === Optimizations === 
  Debug level        : basic
  Optimization level : standard
  Architecture       : intel_xeon

 === Multicore === 
  Parallel build : no
  Parallel I/O   : no
  openMP support : no
  GPU support    : no

 === Connectors / Fallbacks === 
  Connectors on : yes
  Fallbacks on  : yes
  DFT flavor    : none
  FFT flavor    : none
  LINALG flavor : netlib
  MATH flavor   : none
  TIMER flavor  : abinit
  TRIO flavor   : none

 === Experimental features === 
  Bindings            : @enable_bindings@
  Exports             : no
  GW double-precision : no

 ++++++++++++++++++++++++++++++++++++++++++++++++++++++++++++++++++++++++++++++


 ++++++++++++++++++++++++++++++++++++++++++++++++++++++++++++++++++++++++++++++
 Default optimizations:
   -O2 -mtune=native -march=native


 Optimizations for 20_datashare:
   -O0


 ++++++++++++++++++++++++++++++++++++++++++++++++++++++++++++++++++++++++++++++


 ++++++++++++++++++++++++++++++++++++++++++++++++++++++++++++++++++++++++++++++
 CPP options activated during the build:

                    CC_GNU                   CXX_GNU                    FC_GNU
 
 HAVE_FC_ALLOCATABLE_DT...             HAVE_FC_ASYNC         HAVE_FC_BACKTRACE
 
  HAVE_FC_COMMAND_ARGUMENT      HAVE_FC_COMMAND_LINE        HAVE_FC_CONTIGUOUS
 
           HAVE_FC_CPUTIME              HAVE_FC_EXIT             HAVE_FC_FLUSH
 
             HAVE_FC_GAMMA            HAVE_FC_GETENV   HAVE_FC_IEEE_EXCEPTIONS
 
          HAVE_FC_INT_QUAD             HAVE_FC_IOMSG     HAVE_FC_ISO_C_BINDING
 
  HAVE_FC_ISO_FORTRAN_2008        HAVE_FC_LONG_LINES        HAVE_FC_MOVE_ALLOC
 
           HAVE_FC_PRIVATE         HAVE_FC_PROTECTED         HAVE_FC_STREAM_IO
 
            HAVE_FC_SYSTEM          HAVE_FORTRAN2003        HAVE_LIBPAW_ABINIT
 
      HAVE_LIBTETRA_ABINIT               HAVE_LINALG        HAVE_LINALG_SERIAL
 
             HAVE_OS_LINUX         HAVE_TIMER_ABINIT              USE_MACROAVE
 
 ++++++++++++++++++++++++++++++++++++++++++++++++++++++++++++++++++++++++++++++

- input  file    -> zgnr.in
- output file    -> zgnr.out
- root for input  files -> zgnri
- root for output files -> zgnro

-instrng: 207 lines of input have been read from file zgnr.in


 Please give name of formatted atomic psp file
 iofn2 : for atom type 1, psp file is ../C.LDA_PW-JTH.xml

 Please give name of formatted atomic psp file
 iofn2 : for atom type 2, psp file is ../H.LDA_PW-JTH.xml
- inpspheads : Reading pseudopotential header in XML form from ../C.LDA_PW-JTH.xml
- inpspheads : Reading pseudopotential header in XML form from ../H.LDA_PW-JTH.xml

 inpspheads: deduce mpsang = 2, n1xccc = 1.
 invars1 : treat image number: 1
 ingeo : use angdeg to generate rprim.

 symlatt : the Bravais lattice is oP (primitive orthorhombic)
  xangst is defined in input file
 ingeo : takes atomic coordinates from input array xangst
  symfind : exit, nsym=           1
    symrel matrices, symafm and tnons are :
   1       1   0   0     0   1   0     0   0   1       1      0.0000  0.0000  0.0000

 symlatt : the Bravais lattice is oP (primitive orthorhombic)

 symlatt : the Bravais lattice is oP (primitive orthorhombic)

--- !COMMENT
src_file: symbrav.F90
src_line: 201
message: |
    The Bravais lattice determined only from the primitive
    vectors, bravais(1)=  3, is more symmetric
    than the real one, iholohedry=  1, obtained by taking into
    account the atomic positions. Start deforming the primitive vector set.
...


 symlatt : the Bravais lattice is aP (primitive triclinic)
 symspgr : spgroup=   1  P1   (=C1^1)
 ingeo : angdeg(1:3)=   90.00000000   90.00000000   90.00000000
 invars1 : treat image number: 1
 ingeo : use angdeg to generate rprim.

 symlatt : the Bravais lattice is oP (primitive orthorhombic)
  xangst is defined in input file
 ingeo : takes atomic coordinates from input array xangst
  symfind : exit, nsym=           1
    symrel matrices, symafm and tnons are :
   1       1   0   0     0   1   0     0   0   1       1      0.0000  0.0000  0.0000

 symlatt : the Bravais lattice is oP (primitive orthorhombic)

 symlatt : the Bravais lattice is oP (primitive orthorhombic)

--- !COMMENT
src_file: symbrav.F90
src_line: 201
message: |
    The Bravais lattice determined only from the primitive
    vectors, bravais(1)=  3, is more symmetric
    than the real one, iholohedry=  1, obtained by taking into
    account the atomic positions. Start deforming the primitive vector set.
...


 symlatt : the Bravais lattice is aP (primitive triclinic)
 symspgr : spgroup=   1  P1   (=C1^1)
 ingeo : angdeg(1:3)=   90.00000000   90.00000000   90.00000000
 invars2: take the default value of fband=  5.00000000E-01
 chkneu : initialized the occupation numbers for occopt=    7
    spin up   values :
  1.00  1.00  1.00  1.00  1.00  1.00  1.00  1.00  1.00  1.00  1.00  1.00
  1.00  1.00  1.00  1.00  1.00  1.00  1.00  1.00  1.00  1.00  1.00  1.00
  1.00  1.00  1.00  1.00  1.00  1.00  1.00  1.00  1.00  0.00  0.00  0.00
  0.00  0.00  0.00  0.00  0.00  0.00
    spin down values :
  1.00  1.00  1.00  1.00  1.00  1.00  1.00  1.00  1.00  1.00  1.00  1.00
  1.00  1.00  1.00  1.00  1.00  1.00  1.00  1.00  1.00  1.00  1.00  1.00
  1.00  1.00  1.00  1.00  1.00  1.00  1.00  1.00  1.00  0.00  0.00  0.00
  0.00  0.00  0.00  0.00  0.00  0.00
 chkneu : initialized the occupation numbers for occopt=    7
    spin up   values :
  1.00  1.00  1.00  1.00  1.00  1.00  1.00  1.00  1.00  1.00  1.00  1.00
  1.00  1.00  1.00  1.00  1.00  1.00  1.00  1.00  1.00  1.00  1.00  1.00
  1.00  1.00  1.00  1.00  1.00  1.00  1.00  1.00  1.00  0.00  0.00  0.00
  0.00  0.00  0.00  0.00
    spin down values :
  1.00  1.00  1.00  1.00  1.00  1.00  1.00  1.00  1.00  1.00  1.00  1.00
  1.00  1.00  1.00  1.00  1.00  1.00  1.00  1.00  1.00  1.00  1.00  1.00
  1.00  1.00  1.00  1.00  1.00  1.00  1.00  1.00  1.00  0.00  0.00  0.00
  0.00  0.00  0.00  0.00
mpi_setup: mkmem  undefined in the input file.Use default mkmem  = nkpt
 mpi_setup: With nkpt_me=15 and mkmem  = 15, ground state wf handled in core.
mpi_setup: mkqmem undefined in the input file.Use default mkqmem = nkpt
 mpi_setup: With nkpt_me=15 and mkqmem = 15, ground state wf handled in core.
mpi_setup: mk1mem undefined in the input file.Use default mk1mem = nkpt
 mpi_setup: With nkpt_me=15 and mk1mem = 15, ground state wf handled in core.
getng is called for the coarse grid:
 For input ecut=  1.400000E+01 best grid ngfft=      96     225      16
       max ecut=  1.415051E+01

 ==== FFT mesh ====
  FFT mesh divisions ........................    96  225   16
  Augmented FFT divisions ...................    97  225   16
  FFT algorithm .............................   112
  FFT cache size ............................    16
 getmpw: optimal value of mpw= 22040
getng is called for the fine grid:
 Using supplied coarse mesh as initial guess.
 For input ecut=  4.000000E+01 best grid ngfft=     162     384      30
       max ecut=  4.029578E+01

 ==== FFT mesh ====
  FFT mesh divisions ........................   162  384   30
  Augmented FFT divisions ...................   163  385   30
  FFT algorithm .............................   112
  FFT cache size ............................    16
mpi_setup: mkmem  undefined in the input file.Use default mkmem  = nkpt
 mpi_setup: With nkpt_me=16 and mkmem  = 16, ground state wf handled in core.
mpi_setup: mkqmem undefined in the input file.Use default mkqmem = nkpt
 mpi_setup: With nkpt_me=16 and mkqmem = 16, ground state wf handled in core.
mpi_setup: mk1mem undefined in the input file.Use default mk1mem = nkpt
 mpi_setup: With nkpt_me=16 and mk1mem = 16, ground state wf handled in core.
getng is called for the coarse grid:
 For input ecut=  1.400000E+01 best grid ngfft=      96     225      16
       max ecut=  1.415051E+01

 ==== FFT mesh ====
  FFT mesh divisions ........................    96  225   16
  Augmented FFT divisions ...................    97  225   16
  FFT algorithm .............................   112
  FFT cache size ............................    16
 getmpw: optimal value of mpw= 22062
getng is called for the fine grid:
 Using supplied coarse mesh as initial guess.
 For input ecut=  4.000000E+01 best grid ngfft=     162     384      30
       max ecut=  4.029578E+01

 ==== FFT mesh ====
  FFT mesh divisions ........................   162  384   30
  Augmented FFT divisions ...................   163  385   30
  FFT algorithm .............................   112
  FFT cache size ............................    16

 DATASET    1 : space group P1 (#  1); Bravais aP (primitive triclinic)

 getdim_nloc : deduce lmnmax  =   8, lnmax  =   4,
                      lmnmaxso=   8, lnmaxso=   4.
memory : analysis of memory needs
================================================================================
 Values of the parameters that define the memory need for DATASET  1.
     intxc =       0    ionmov =       0      iscf =      17    lmnmax =       8
     lnmax =       4     mgfft =     225  mpssoang =       2    mqgrid =   18831
     natom =      18  nloc_mem =       2    nspden =       2   nspinor =       1
    nsppol =       2      nsym =       1    n1xccc =       1    ntypat =       2
    occopt =       7   xclevel =       1
-    mband =          42        mffmem =           1         mkmem =          15
       mpw =       22040          nfft =      345600          nkpt =          15
 PAW method is used; the additional fine FFT grid is defined by:
   mgfftf=       384    nfftf =   1866240
================================================================================
P This job should need less than                     923.580 Mbytes of memory.
  Rough estimation (10% accuracy) of disk space for files :
_ WF disk file :    423.745 Mbytes ; DEN or POT disk file :     28.479 Mbytes.
================================================================================

 Biggest array : cg(disk), with    423.7447 MBytes.
 memana : allocated an array of    423.745 Mbytes, for testing purposes.
 memana: allocated     923.580Mbytes, for testing purposes. 
 The job will continue.

 DATASET    2 : space group P1 (#  1); Bravais aP (primitive triclinic)

 getdim_nloc : deduce lmnmax  =   8, lnmax  =   4,
                      lmnmaxso=   8, lnmaxso=   4.
memory : analysis of memory needs
================================================================================
 Values of the parameters that define the memory need for DATASET  2.
     intxc =       0    ionmov =       0      iscf =      -2    lmnmax =       8
     lnmax =       4     mgfft =     225  mpssoang =       2    mqgrid =   18831
     natom =      18  nloc_mem =       2    nspden =       2   nspinor =       1
    nsppol =       2      nsym =       1    n1xccc =       1    ntypat =       2
    occopt =       7   xclevel =       1
-    mband =          40        mffmem =           1         mkmem =          16
       mpw =       22062          nfft =      345600          nkpt =          16
 PAW method is used; the additional fine FFT grid is defined by:
   mgfftf=       384    nfftf =   1866240
================================================================================
P This job should need less than                     736.012 Mbytes of memory.
  Rough estimation (10% accuracy) of disk space for files :
_ WF disk file :    430.900 Mbytes ; DEN or POT disk file :     28.479 Mbytes.
================================================================================

 Biggest array : cg(disk), with    430.9004 MBytes.
 memana : allocated an array of    430.900 Mbytes, for testing purposes.
 memana: allocated     736.012Mbytes, for testing purposes. 
 The job will continue.
--------------------------------------------------------------------------------
------------- Echo of variables that govern the present computation ------------
--------------------------------------------------------------------------------
-
- outvars: echo of selected default values                                      
-   iomode0 =  0 , fftalg0 =112 , wfoptalg0 = 10
-
- outvars: echo of global parameters not present in the input file              
-  max_nthreads =    0
-
 -outvars: echo values of preprocessed input variables --------
            acell      2.8345891993E+01  6.6140414651E+01  4.6652108581E+00 Bohr
              amu      1.20110000E+01  1.00794000E+00
           diemac      1.00000000E+01
             ecut      1.40000000E+01 Hartree
           enunit1          0
           enunit2          1
-          fftalg         112
           getden1          0
           getden2         -1
             iscf1         17
             iscf2         -2
           istwfk2       2    0    0    0    0    0    0    0    0    0
                         0    0    0    0    0    4
              ixc           7
           jdtset        1    2
              kpt1     0.00000000E+00  0.00000000E+00  1.66666667E-02
                       0.00000000E+00  0.00000000E+00  5.00000000E-02
                       0.00000000E+00  0.00000000E+00  8.33333333E-02
                       0.00000000E+00  0.00000000E+00  1.16666667E-01
                       0.00000000E+00  0.00000000E+00  1.50000000E-01
                       0.00000000E+00  0.00000000E+00  1.83333333E-01
                       0.00000000E+00  0.00000000E+00  2.16666667E-01
                       0.00000000E+00  0.00000000E+00  2.50000000E-01
                       0.00000000E+00  0.00000000E+00  2.83333333E-01
                       0.00000000E+00  0.00000000E+00  3.16666667E-01
                       0.00000000E+00  0.00000000E+00  3.50000000E-01
                       0.00000000E+00  0.00000000E+00  3.83333333E-01
                       0.00000000E+00  0.00000000E+00  4.16666667E-01
                       0.00000000E+00  0.00000000E+00  4.50000000E-01
                       0.00000000E+00  0.00000000E+00  4.83333333E-01
              kpt2     0.00000000E+00  0.00000000E+00  0.00000000E+00
                       0.00000000E+00  0.00000000E+00  3.33333333E-02
                       0.00000000E+00  0.00000000E+00  6.66666667E-02
                       0.00000000E+00  0.00000000E+00  1.00000000E-01
                       0.00000000E+00  0.00000000E+00  1.33333333E-01
                       0.00000000E+00  0.00000000E+00  1.66666667E-01
                       0.00000000E+00  0.00000000E+00  2.00000000E-01
                       0.00000000E+00  0.00000000E+00  2.33333333E-01
                       0.00000000E+00  0.00000000E+00  2.66666667E-01
                       0.00000000E+00  0.00000000E+00  3.00000000E-01
                       0.00000000E+00  0.00000000E+00  3.33333333E-01
                       0.00000000E+00  0.00000000E+00  3.66666667E-01
                       0.00000000E+00  0.00000000E+00  4.00000000E-01
                       0.00000000E+00  0.00000000E+00  4.33333333E-01
                       0.00000000E+00  0.00000000E+00  4.66666667E-01
                       0.00000000E+00  0.00000000E+00  5.00000000E-01
           kptopt1          1
           kptopt2         -1
         kptrlatt        1    0    0      0    1    0      0    0   30
          kptrlen1     1.39956326E+02
          kptrlen2     3.00000000E+01
P           mkmem1         15
P           mkmem2         16
            natom          18
            nband1         42
            nband2         40
           nbdbuf1          0
           nbdbuf2          2
           ndtset           2
            ngfft          96     225      16
          ngfftdg         162     384      30
             nkpt1         15
             nkpt2         16
           nspden           2
           nsppol           2
            nstep          80
             nsym           1
           ntypat           2
              occ      1.000000  1.000000  1.000000  1.000000  1.000000  1.000000
                       1.000000  1.000000  1.000000  1.000000  1.000000  1.000000
                       1.000000  1.000000  1.000000  1.000000  1.000000  1.000000
                       1.000000  1.000000  1.000000  1.000000  1.000000  1.000000
                       1.000000  1.000000  1.000000  1.000000  1.000000  1.000000
                       1.000000  1.000000  1.000000  0.000000  0.000000  0.000000
                       0.000000  0.000000  0.000000  0.000000  0.000000  0.000000
                       1.000000  1.000000  1.000000  1.000000  1.000000  1.000000
                       1.000000  1.000000  1.000000  1.000000  1.000000  1.000000
                       1.000000  1.000000  1.000000  1.000000  1.000000  1.000000
                       1.000000  1.000000  1.000000  1.000000  1.000000  1.000000
                       1.000000  1.000000  1.000000  1.000000  1.000000  1.000000
                       1.000000  1.000000  1.000000  0.000000  0.000000  0.000000
                       0.000000  0.000000  0.000000  0.000000  0.000000  0.000000
                       1.000000  1.000000  1.000000  1.000000  1.000000  1.000000
                       1.000000  1.000000  1.000000  1.000000  1.000000  1.000000
                       1.000000  1.000000  1.000000  1.000000  1.000000  1.000000
                       1.000000  1.000000  1.000000  1.000000  1.000000  1.000000
                       1.000000  1.000000  1.000000  1.000000  1.000000  1.000000
                       1.000000  1.000000  1.000000  0.000000  0.000000  0.000000
                       0.000000  0.000000  0.000000  0.000000  0.000000  0.000000
                       1.000000  1.000000  1.000000  1.000000  1.000000  1.000000
                       1.000000  1.000000  1.000000  1.000000  1.000000  1.000000
                       1.000000  1.000000  1.000000  1.000000  1.000000  1.000000
                       1.000000  1.000000  1.000000  1.000000  1.000000  1.000000
                       1.000000  1.000000  1.000000  1.000000  1.000000  1.000000
                       1.000000  1.000000  1.000000  0.000000  0.000000  0.000000
                       0.000000  0.000000  0.000000  0.000000  0.000000  0.000000
                       1.000000  1.000000  1.000000  1.000000  1.000000  1.000000
                       1.000000  1.000000  1.000000  1.000000  1.000000  1.000000
                       1.000000  1.000000  1.000000  1.000000  1.000000  1.000000
                       1.000000  1.000000  1.000000  1.000000  1.000000  1.000000
                       1.000000  1.000000  1.000000  1.000000  1.000000  1.000000
                       1.000000  1.000000  1.000000  0.000000  0.000000  0.000000
                       0.000000  0.000000  0.000000  0.000000  0.000000  0.000000
                       1.000000  1.000000  1.000000  1.000000  1.000000  1.000000
                       1.000000  1.000000  1.000000  1.000000  1.000000  1.000000
                       1.000000  1.000000  1.000000  1.000000  1.000000  1.000000
                       1.000000  1.000000  1.000000  1.000000  1.000000  1.000000
                       1.000000  1.000000  1.000000  1.000000  1.000000  1.000000
                       1.000000  1.000000  1.000000  0.000000  0.000000  0.000000
                       0.000000  0.000000  0.000000  0.000000  0.000000  0.000000
                       1.000000  1.000000  1.000000  1.000000  1.000000  1.000000
                       1.000000  1.000000  1.000000  1.000000  1.000000  1.000000
                       1.000000  1.000000  1.000000  1.000000  1.000000  1.000000
                       1.000000  1.000000  1.000000  1.000000  1.000000  1.000000
                       1.000000  1.000000  1.000000  1.000000  1.000000  1.000000
                       1.000000  1.000000  1.000000  0.000000  0.000000  0.000000
                       0.000000  0.000000  0.000000  0.000000  0.000000  0.000000
                       1.000000  1.000000  1.000000  1.000000  1.000000  1.000000
                       1.000000  1.000000  1.000000  1.000000  1.000000  1.000000
                       1.000000  1.000000  1.000000  1.000000  1.000000  1.000000
                       1.000000  1.000000  1.000000  1.000000  1.000000  1.000000
                       1.000000  1.000000  1.000000  1.000000  1.000000  1.000000
                       1.000000  1.000000  1.000000  0.000000  0.000000  0.000000
                       0.000000  0.000000  0.000000  0.000000  0.000000  0.000000
                       1.000000  1.000000  1.000000  1.000000  1.000000  1.000000
                       1.000000  1.000000  1.000000  1.000000  1.000000  1.000000
                       1.000000  1.000000  1.000000  1.000000  1.000000  1.000000
                       1.000000  1.000000  1.000000  1.000000  1.000000  1.000000
                       1.000000  1.000000  1.000000  1.000000  1.000000  1.000000
                       1.000000  1.000000  1.000000  0.000000  0.000000  0.000000
                       0.000000  0.000000  0.000000  0.000000  0.000000  0.000000
                       1.000000  1.000000  1.000000  1.000000  1.000000  1.000000
                       1.000000  1.000000  1.000000  1.000000  1.000000  1.000000
                       1.000000  1.000000  1.000000  1.000000  1.000000  1.000000
                       1.000000  1.000000  1.000000  1.000000  1.000000  1.000000
                       1.000000  1.000000  1.000000  1.000000  1.000000  1.000000
                       1.000000  1.000000  1.000000  0.000000  0.000000  0.000000
                       0.000000  0.000000  0.000000  0.000000  0.000000  0.000000
                       1.000000  1.000000  1.000000  1.000000  1.000000  1.000000
                       1.000000  1.000000  1.000000  1.000000  1.000000  1.000000
                       1.000000  1.000000  1.000000  1.000000  1.000000  1.000000
                       1.000000  1.000000  1.000000  1.000000  1.000000  1.000000
                       1.000000  1.000000  1.000000  1.000000  1.000000  1.000000
                       1.000000  1.000000  1.000000  0.000000  0.000000  0.000000
                       0.000000  0.000000  0.000000  0.000000  0.000000  0.000000
                       1.000000  1.000000  1.000000  1.000000  1.000000  1.000000
                       1.000000  1.000000  1.000000  1.000000  1.000000  1.000000
                       1.000000  1.000000  1.000000  1.000000  1.000000  1.000000
                       1.000000  1.000000  1.000000  1.000000  1.000000  1.000000
                       1.000000  1.000000  1.000000  1.000000  1.000000  1.000000
                       1.000000  1.000000  1.000000  0.000000  0.000000  0.000000
                       0.000000  0.000000  0.000000  0.000000  0.000000  0.000000
                       1.000000  1.000000  1.000000  1.000000  1.000000  1.000000
                       1.000000  1.000000  1.000000  1.000000  1.000000  1.000000
                       1.000000  1.000000  1.000000  1.000000  1.000000  1.000000
                       1.000000  1.000000  1.000000  1.000000  1.000000  1.000000
                       1.000000  1.000000  1.000000  1.000000  1.000000  1.000000
                       1.000000  1.000000  1.000000  0.000000  0.000000  0.000000
                       0.000000  0.000000  0.000000  0.000000  0.000000  0.000000
                       1.000000  1.000000  1.000000  1.000000  1.000000  1.000000
                       1.000000  1.000000  1.000000  1.000000  1.000000  1.000000
                       1.000000  1.000000  1.000000  1.000000  1.000000  1.000000
                       1.000000  1.000000  1.000000  1.000000  1.000000  1.000000
                       1.000000  1.000000  1.000000  1.000000  1.000000  1.000000
                       1.000000  1.000000  1.000000  0.000000  0.000000  0.000000
                       0.000000  0.000000  0.000000  0.000000  0.000000  0.000000
                       1.000000  1.000000  1.000000  1.000000  1.000000  1.000000
                       1.000000  1.000000  1.000000  1.000000  1.000000  1.000000
                       1.000000  1.000000  1.000000  1.000000  1.000000  1.000000
                       1.000000  1.000000  1.000000  1.000000  1.000000  1.000000
                       1.000000  1.000000  1.000000  1.000000  1.000000  1.000000
                       1.000000  1.000000  1.000000  0.000000  0.000000  0.000000
                       0.000000  0.000000  0.000000  0.000000  0.000000  0.000000
                       1.000000  1.000000  1.000000  1.000000  1.000000  1.000000
                       1.000000  1.000000  1.000000  1.000000  1.000000  1.000000
                       1.000000  1.000000  1.000000  1.000000  1.000000  1.000000
                       1.000000  1.000000  1.000000  1.000000  1.000000  1.000000
                       1.000000  1.000000  1.000000  1.000000  1.000000  1.000000
                       1.000000  1.000000  1.000000  0.000000  0.000000  0.000000
                       0.000000  0.000000  0.000000  0.000000  0.000000  0.000000
                       1.000000  1.000000  1.000000  1.000000  1.000000  1.000000
                       1.000000  1.000000  1.000000  1.000000  1.000000  1.000000
                       1.000000  1.000000  1.000000  1.000000  1.000000  1.000000
                       1.000000  1.000000  1.000000  1.000000  1.000000  1.000000
                       1.000000  1.000000  1.000000  1.000000  1.000000  1.000000
                       1.000000  1.000000  1.000000  0.000000  0.000000  0.000000
                       0.000000  0.000000  0.000000  0.000000  0.000000  0.000000
                       1.000000  1.000000  1.000000  1.000000  1.000000  1.000000
                       1.000000  1.000000  1.000000  1.000000  1.000000  1.000000
                       1.000000  1.000000  1.000000  1.000000  1.000000  1.000000
                       1.000000  1.000000  1.000000  1.000000  1.000000  1.000000
                       1.000000  1.000000  1.000000  1.000000  1.000000  1.000000
                       1.000000  1.000000  1.000000  0.000000  0.000000  0.000000
                       0.000000  0.000000  0.000000  0.000000  0.000000  0.000000
                       1.000000  1.000000  1.000000  1.000000  1.000000  1.000000
                       1.000000  1.000000  1.000000  1.000000  1.000000  1.000000
                       1.000000  1.000000  1.000000  1.000000  1.000000  1.000000
                       1.000000  1.000000  1.000000  1.000000  1.000000  1.000000
                       1.000000  1.000000  1.000000  1.000000  1.000000  1.000000
                       1.000000  1.000000  1.000000  0.000000  0.000000  0.000000
                       0.000000  0.000000  0.000000  0.000000  0.000000  0.000000
                       1.000000  1.000000  1.000000  1.000000  1.000000  1.000000
                       1.000000  1.000000  1.000000  1.000000  1.000000  1.000000
                       1.000000  1.000000  1.000000  1.000000  1.000000  1.000000
                       1.000000  1.000000  1.000000  1.000000  1.000000  1.000000
                       1.000000  1.000000  1.000000  1.000000  1.000000  1.000000
                       1.000000  1.000000  1.000000  0.000000  0.000000  0.000000
                       0.000000  0.000000  0.000000  0.000000  0.000000  0.000000
                       1.000000  1.000000  1.000000  1.000000  1.000000  1.000000
                       1.000000  1.000000  1.000000  1.000000  1.000000  1.000000
                       1.000000  1.000000  1.000000  1.000000  1.000000  1.000000
                       1.000000  1.000000  1.000000  1.000000  1.000000  1.000000
                       1.000000  1.000000  1.000000  1.000000  1.000000  1.000000
                       1.000000  1.000000  1.000000  0.000000  0.000000  0.000000
                       0.000000  0.000000  0.000000  0.000000  0.000000  0.000000
                       1.000000  1.000000  1.000000  1.000000  1.000000  1.000000
                       1.000000  1.000000  1.000000  1.000000  1.000000  1.000000
                       1.000000  1.000000  1.000000  1.000000  1.000000  1.000000
                       1.000000  1.000000  1.000000  1.000000  1.000000  1.000000
                       1.000000  1.000000  1.000000  1.000000  1.000000  1.000000
                       1.000000  1.000000  1.000000  0.000000  0.000000  0.000000
                       0.000000  0.000000  0.000000  0.000000  0.000000  0.000000
                       1.000000  1.000000  1.000000  1.000000  1.000000  1.000000
                       1.000000  1.000000  1.000000  1.000000  1.000000  1.000000
                       1.000000  1.000000  1.000000  1.000000  1.000000  1.000000
                       1.000000  1.000000  1.000000  1.000000  1.000000  1.000000
                       1.000000  1.000000  1.000000  1.000000  1.000000  1.000000
                       1.000000  1.000000  1.000000  0.000000  0.000000  0.000000
                       0.000000  0.000000  0.000000  0.000000  0.000000  0.000000
                       1.000000  1.000000  1.000000  1.000000  1.000000  1.000000
                       1.000000  1.000000  1.000000  1.000000  1.000000  1.000000
                       1.000000  1.000000  1.000000  1.000000  1.000000  1.000000
                       1.000000  1.000000  1.000000  1.000000  1.000000  1.000000
                       1.000000  1.000000  1.000000  1.000000  1.000000  1.000000
                       1.000000  1.000000  1.000000  0.000000  0.000000  0.000000
                       0.000000  0.000000  0.000000  0.000000  0.000000  0.000000
                       1.000000  1.000000  1.000000  1.000000  1.000000  1.000000
                       1.000000  1.000000  1.000000  1.000000  1.000000  1.000000
                       1.000000  1.000000  1.000000  1.000000  1.000000  1.000000
                       1.000000  1.000000  1.000000  1.000000  1.000000  1.000000
                       1.000000  1.000000  1.000000  1.000000  1.000000  1.000000
                       1.000000  1.000000  1.000000  0.000000  0.000000  0.000000
                       0.000000  0.000000  0.000000  0.000000  0.000000  0.000000
                       1.000000  1.000000  1.000000  1.000000  1.000000  1.000000
                       1.000000  1.000000  1.000000  1.000000  1.000000  1.000000
                       1.000000  1.000000  1.000000  1.000000  1.000000  1.000000
                       1.000000  1.000000  1.000000  1.000000  1.000000  1.000000
                       1.000000  1.000000  1.000000  1.000000  1.000000  1.000000
                       1.000000  1.000000  1.000000  0.000000  0.000000  0.000000
                       0.000000  0.000000  0.000000  0.000000  0.000000  0.000000
                       1.000000  1.000000  1.000000  1.000000  1.000000  1.000000
                       1.000000  1.000000  1.000000  1.000000  1.000000  1.000000
                       1.000000  1.000000  1.000000  1.000000  1.000000  1.000000
                       1.000000  1.000000  1.000000  1.000000  1.000000  1.000000
                       1.000000  1.000000  1.000000  1.000000  1.000000  1.000000
                       1.000000  1.000000  1.000000  0.000000  0.000000  0.000000
                       0.000000  0.000000  0.000000  0.000000  0.000000  0.000000
                       1.000000  1.000000  1.000000  1.000000  1.000000  1.000000
                       1.000000  1.000000  1.000000  1.000000  1.000000  1.000000
                       1.000000  1.000000  1.000000  1.000000  1.000000  1.000000
                       1.000000  1.000000  1.000000  1.000000  1.000000  1.000000
                       1.000000  1.000000  1.000000  1.000000  1.000000  1.000000
                       1.000000  1.000000  1.000000  0.000000  0.000000  0.000000
                       0.000000  0.000000  0.000000  0.000000  0.000000  0.000000
                       1.000000  1.000000  1.000000  1.000000  1.000000  1.000000
                       1.000000  1.000000  1.000000  1.000000  1.000000  1.000000
                       1.000000  1.000000  1.000000  1.000000  1.000000  1.000000
                       1.000000  1.000000  1.000000  1.000000  1.000000  1.000000
                       1.000000  1.000000  1.000000  1.000000  1.000000  1.000000
                       1.000000  1.000000  1.000000  0.000000  0.000000  0.000000
                       0.000000  0.000000  0.000000  0.000000  0.000000  0.000000
                       1.000000  1.000000  1.000000  1.000000  1.000000  1.000000
                       1.000000  1.000000  1.000000  1.000000  1.000000  1.000000
                       1.000000  1.000000  1.000000  1.000000  1.000000  1.000000
                       1.000000  1.000000  1.000000  1.000000  1.000000  1.000000
                       1.000000  1.000000  1.000000  1.000000  1.000000  1.000000
                       1.000000  1.000000  1.000000  0.000000  0.000000  0.000000
                       0.000000  0.000000  0.000000  0.000000  0.000000  0.000000
           occopt           7
        pawecutdg      4.00000000E+01 Hartree
          pawovlp      1.0000000000E+01
           shiftk1     0.00000000E+00  0.00000000E+00  5.00000000E-01
           shiftk2     5.00000000E-01  5.00000000E-01  5.00000000E-01
          spgroup           1
           spinat      0.0000000000E+00  0.0000000000E+00  1.0000000000E+00
                       0.0000000000E+00  0.0000000000E+00  0.0000000000E+00
                       0.0000000000E+00  0.0000000000E+00  0.0000000000E+00
                       0.0000000000E+00  0.0000000000E+00  0.0000000000E+00
                       0.0000000000E+00  0.0000000000E+00  0.0000000000E+00
                       0.0000000000E+00  0.0000000000E+00  0.0000000000E+00
                       0.0000000000E+00  0.0000000000E+00  0.0000000000E+00
                       0.0000000000E+00  0.0000000000E+00  0.0000000000E+00
                       0.0000000000E+00  0.0000000000E+00  0.0000000000E+00
                       0.0000000000E+00  0.0000000000E+00  0.0000000000E+00
                       0.0000000000E+00  0.0000000000E+00  0.0000000000E+00
                       0.0000000000E+00  0.0000000000E+00  0.0000000000E+00
                       0.0000000000E+00  0.0000000000E+00  0.0000000000E+00
                       0.0000000000E+00  0.0000000000E+00  0.0000000000E+00
                       0.0000000000E+00  0.0000000000E+00  0.0000000000E+00
                       0.0000000000E+00  0.0000000000E+00  0.0000000000E+00
                       0.0000000000E+00  0.0000000000E+00  0.0000000000E+00
                       0.0000000000E+00  0.0000000000E+00 -1.0000000000E+00
           toldfe1     1.00000000E-06 Hartree
           toldfe2     0.00000000E+00 Hartree
           tolwfr1     0.00000000E+00
           tolwfr2     1.00000000E-12
            typat      2  1  1  1  1  1  1  1  1  1  1  1  1  1  1  1  1  2
           useylm           1
              wtk1       0.06667    0.06667    0.06667    0.06667    0.06667    0.06667
                         0.06667    0.06667    0.06667    0.06667    0.06667    0.06667
                         0.06667    0.06667    0.06667
              wtk2       1.00000    1.00000    1.00000    1.00000    1.00000    1.00000
                         1.00000    1.00000    1.00000    1.00000    1.00000    1.00000
                         1.00000    1.00000    1.00000    1.00000
           xangst      2.1924687653E-06 -8.9347127982E+00  1.2253261414E+00
                      -6.3335522880E-06 -7.8374663590E+00  1.2252914015E+00
                      -1.2466279888E-05 -7.1553103483E+00 -9.0703680259E-03
                      -2.4889138031E-05 -5.7095725410E+00 -9.0145181006E-03
                      -3.0871693702E-05 -5.0013301057E+00  1.2253608862E+00
                      -4.2554247256E-05 -3.5682760068E+00  1.2253671991E+00
                      -4.7331677516E-05 -2.8569447694E+00 -8.9956653736E-03
                      -5.1814279312E-05 -1.4267271463E+00 -8.9761860125E-03
                      -5.0440741501E-05 -7.1470430595E-01  1.2253949192E+00
                      -3.9645629859E-05  7.1487653105E-01  1.2253974953E+00
                      -3.1339882842E-05  1.4268988477E+00 -8.9725857920E-03
                      -1.2927341998E-05  2.8571142755E+00 -8.9900137798E-03
                      -3.8630326290E-06  3.5684443157E+00  1.2253733133E+00
                       1.1398425826E-05  5.0014956819E+00  1.2253679131E+00
                       1.7259567710E-05  5.7097392667E+00 -9.0075717678E-03
                       2.3882826847E-05  7.1554797931E+00 -9.0650236494E-03
                       2.4511032039E-05  7.8376359584E+00  1.2252964978E+00
                       2.2583175635E-05  8.9348828407E+00  1.2253293079E+00
            xcart      4.1431655213E-06 -1.6884160265E+01  2.3155308307E+00
                      -1.1968679273E-05 -1.4810664994E+01  2.3154651818E+00
                      -2.3557854884E-05 -1.3521576954E+01 -1.7140511493E-02
                      -4.7033654562E-05 -1.0789528438E+01 -1.7034970430E-02
                      -5.8339046355E-05 -9.4511441999E+00  2.3155964889E+00
                      -8.0415873105E-05 -6.7430644194E+00  2.3156084185E+00
                      -8.9443907915E-05 -5.3988431909E+00 -1.6999343939E-02
                      -9.7914797673E-05 -2.6961235729E+00 -1.6962533281E-02
                      -9.5319187377E-05 -1.3505954042E+00  2.3156608019E+00
                      -7.4919382799E-05  1.3509208625E+00  2.3156656700E+00
                      -5.9223795608E-05  2.6964480415E+00 -1.6955729851E-02
                      -2.4429136002E-05  5.3991635111E+00 -1.6988663975E-02
                      -7.3000737112E-06  6.7433824771E+00  2.3156199727E+00
                       2.1539903157E-05  9.4514570936E+00  2.3156097678E+00
                       3.2615856144E-05  1.0789843504E+01 -1.7021843763E-02
                       4.5132002020E-05  1.3521897158E+01 -1.7130412085E-02
                       4.6319137788E-05  1.4810985491E+01  2.3154748124E+00
                       4.2676017161E-05  1.6884481598E+01  2.3155368145E+00
             xred      1.4616458439E-07 -2.5527750852E-01  4.9634001573E-01
                      -4.2223681918E-07 -2.2392761026E-01  4.9632594372E-01
                      -8.3108532585E-07 -2.0443743852E-01 -3.6741129211E-03
                      -1.6592758687E-06 -1.6313064403E-01 -3.6514899215E-03
                      -2.0581129135E-06 -1.4289514588E-01  4.9635408973E-01
                      -2.8369498171E-06 -1.0195074305E-01  4.9635664688E-01
                      -3.1554451678E-06 -8.1626993411E-02 -3.6438532911E-03
                      -3.4542852875E-06 -4.0763632751E-02 -3.6359628316E-03
                      -3.3627161001E-06 -2.0420123027E-02  4.9636787540E-01
                      -2.6430419906E-06  2.0425043744E-02  4.9636891889E-01
                      -2.0893255228E-06  4.0768538506E-02 -3.6345044986E-03
                      -8.6182279989E-07  8.1631836443E-02 -3.6415640132E-03
                      -2.5753550862E-07  1.0195555188E-01  4.9635912355E-01
                       7.5989505505E-07  1.4289987663E-01  4.9635693610E-01
                       1.1506378473E-06  1.6313540762E-01 -3.6486761866E-03
                       1.5921884565E-06  2.0444227980E-01 -3.6719480869E-03
                       1.6340688026E-06  2.2393245595E-01  4.9632800807E-01
                       1.5055450423E-06  2.5528236688E-01  4.9634129838E-01
            znucl        6.00000    1.00000

================================================================================

 chkinp: Checking input parameters for consistency, jdtset=   1.

 chkinp: Checking input parameters for consistency, jdtset=   2.
 DATA TYPE INFORMATION: 
 REAL:      Data type name: REAL(DP) 
            Kind value:      8
            Precision:      15
            Smallest nonnegligible quantity relative to 1:  0.22204460E-15
            Smallest positive number:                       0.22250739-307
            Largest representable number:                   0.17976931+309
 INTEGER:   Data type name: INTEGER(default) 
            Kind value: 4
            Bit size:   32
            Largest representable number: 2147483647
 LOGICAL:   Data type name: LOGICAL 
            Kind value: 4
 CHARACTER: Data type name: CHARACTER             Kind value: 1

  ==== OpenMP parallelism is OFF ====
 
  MPI-IO support is OFF

================================================================================
== DATASET  1 ==================================================================
-   nproc =    1


 getdim_nloc : deduce lmnmax  =   8, lnmax  =   4,
                      lmnmaxso=   8, lnmaxso=   4.
 Exchange-correlation functional for the present dataset will be:
  LDA: Perdew-Wang 92 LSD fit to Ceperley-Alder data - ixc=7
 Citation for XC functional:
  J.P.Perdew and Y.Wang, PRB 45, 13244 (1992)

 Unit cell volume ucvol=  8.7463795E+03 bohr^3
 Angles (23,13,12)=  9.00000000E+01  9.00000000E+01  9.00000000E+01 degrees

 Coarse grid specifications (used for wave-functions):

 getcut: wavevector=  0.0000  0.0000  0.0000  ngfft=  96 225  16
         ecut(hartree)=     14.000   => boxcut(ratio)=   2.01072

 Fine grid specifications (used for densities):

 getcut: wavevector=  0.0000  0.0000  0.0000  ngfft= 162 384  30
         ecut(hartree)=     40.000   => boxcut(ratio)=   2.00738
- pspini: atom type   1  psp file is ../C.LDA_PW-JTH.xml
- pspatm: opening atomic psp file    ../C.LDA_PW-JTH.xml
- pspatm : Reading pseudopotential header in XML form from ../C.LDA_PW-JTH.xml
 Pseudopotential format is: paw10
 basis_size (lnmax)=  4 (lmn_size=  8), orbitals=   0   0   1   1
 Spheres core radius: rc_sph= 1.50736703
 1 radial meshes are used:
  - mesh 1: r(i)=AA*[exp(BB*(i-1))-1], size=2001 , AA= 0.94549E-03 BB= 0.56729E-02
 Shapefunction is SIN type: shapef(r)=[sin(pi*r/rshp)/(pi*r/rshp)]**2
 Radius for shape functions =  1.30052589
 mmax= 2001
 Radial grid used for partial waves is grid 1
 Radial grid used for projectors is grid 1
 Radial grid used for (t)core density is grid 1
 Radial grid used for Vloc is grid 1
 Radial grid used for pseudo valence density is grid 1
 Mesh size for Vloc has been set to 1756 to avoid numerical noise.
 Compensation charge density is not taken into account in XC energy/potential
 beta integral value:      -0.482389E+01
 pspatm: atomic psp has been read  and splines computed

- pspini: atom type   2  psp file is ../H.LDA_PW-JTH.xml
- pspatm: opening atomic psp file    ../H.LDA_PW-JTH.xml
- pspatm : Reading pseudopotential header in XML form from ../H.LDA_PW-JTH.xml
 Pseudopotential format is: paw10
 basis_size (lnmax)=  3 (lmn_size=  5), orbitals=   0   0   1
 Spheres core radius: rc_sph= 0.89889493
 1 radial meshes are used:
  - mesh 1: r(i)=AA*[exp(BB*(i-1))-1], size=1500 , AA= 0.63034E-02 BB= 0.63034E-02
 Shapefunction is SIN type: shapef(r)=[sin(pi*r/rshp)/(pi*r/rshp)]**2
 Radius for shape functions =  0.79672474
 mmax= 1500
 Radial grid used for partial waves is grid 1
 Radial grid used for projectors is grid 1
 Radial grid used for (t)core density is grid 1
 Radial grid used for Vloc is grid 1
 Radial grid used for pseudo valence density is grid 1
 Mesh size for Vloc has been set to 1280 to avoid numerical noise.
 Compensation charge density is not taken into account in XC energy/potential
 beta integral value:      -0.628030E-01
 pspatm: atomic psp has been read  and splines computed

   4.65654704E+03                                ecore*ucvol(ha*bohr**3)
 ==== Info on pseudopotentials ====
  PAW calculation
  Number of pseudopotentials ..    2
  Number of types of atoms   ..    2
  Scalar calculation (no spin-orbit term)
  Nonlocal part applied using real spherical harmonics
  Max number of non-local projectors over l and type   2
  Highest angular momentum +1 .......   2
  Max number of (l,n)   components ..   4
  Max number of (l,m,n) components ..   8

 Pseudo-Core Charge Info: 
   Number of radial points for pseudo-core charge ..    1
   XC core-correction treatment (optnlxccc) ........    1
   Radius for pseudo-core charge for each type ..... 

  - Atom type    1 has pseudo-core radius .. 80.0000
  - Atom type    2 has pseudo-core radius .. 80.0000

 Info on the Q-grid used for form factors in spline form: 
   Number of q-points for radial functions ffspl ..  11141
   Number of q-points for vlspl ...................  18831
   vloc is computed in Reciprocal Space

  XC functional for type 1 is 7
  XC functional for type 2 is 7

 newkpt: spin channel isppol2 =     1
 wfconv:    42 bands initialized randomly with npw= 21651, for ikpt=     1
 wfconv:    42 bands initialized randomly with npw= 21637, for ikpt=     2
 wfconv:    42 bands initialized randomly with npw= 21672, for ikpt=     3
 wfconv:    42 bands initialized randomly with npw= 21730, for ikpt=     4
 wfconv:    42 bands initialized randomly with npw= 21786, for ikpt=     5
 wfconv:    42 bands initialized randomly with npw= 21832, for ikpt=     6
 wfconv:    42 bands initialized randomly with npw= 21866, for ikpt=     7
 wfconv:    42 bands initialized randomly with npw= 21928, for ikpt=     8
 wfconv:    42 bands initialized randomly with npw= 21978, for ikpt=     9
 wfconv:    42 bands initialized randomly with npw= 22020, for ikpt=    10
 wfconv:    42 bands initialized randomly with npw= 22032, for ikpt=    11
 wfconv:    42 bands initialized randomly with npw= 22006, for ikpt=    12
 wfconv:    42 bands initialized randomly with npw= 22004, for ikpt=    13
 wfconv:    42 bands initialized randomly with npw= 22040, for ikpt=    14
 wfconv:    42 bands initialized randomly with npw= 22038, for ikpt=    15
 newkpt: spin channel isppol2 =     2
 wfconv:    42 bands initialized randomly with npw= 21651, for ikpt=     1
 wfconv:    42 bands initialized randomly with npw= 21637, for ikpt=     2
 wfconv:    42 bands initialized randomly with npw= 21672, for ikpt=     3
 wfconv:    42 bands initialized randomly with npw= 21730, for ikpt=     4
 wfconv:    42 bands initialized randomly with npw= 21786, for ikpt=     5
 wfconv:    42 bands initialized randomly with npw= 21832, for ikpt=     6
 wfconv:    42 bands initialized randomly with npw= 21866, for ikpt=     7
 wfconv:    42 bands initialized randomly with npw= 21928, for ikpt=     8
 wfconv:    42 bands initialized randomly with npw= 21978, for ikpt=     9
 wfconv:    42 bands initialized randomly with npw= 22020, for ikpt=    10
 wfconv:    42 bands initialized randomly with npw= 22032, for ikpt=    11
 wfconv:    42 bands initialized randomly with npw= 22006, for ikpt=    12
 wfconv:    42 bands initialized randomly with npw= 22004, for ikpt=    13
 wfconv:    42 bands initialized randomly with npw= 22040, for ikpt=    14
 wfconv:    42 bands initialized randomly with npw= 22038, for ikpt=    15
_setup2: Arith. and geom. avg. npw (full set) are   21881.333   21880.837
 initro: for itypat=  1, take pseudo charge density from pp file
 initro: for itypat=  2, take pseudo charge density from pp file

================================================================================
 FFT (fine) grid used in SCF cycle:

 getcut: wavevector=  0.0000  0.0000  0.0000  ngfft= 162 384  30
         ecut(hartree)=     40.000   => boxcut(ratio)=   2.00738

 chkpawovlp : WARNING -
  PAW SPHERES ARE OVERLAPPING !
   Distance between atoms   1 and   2 is  :   2.07350
   PAW radius of the sphere around atom   1 is:   0.89889
   PAW radius of the sphere around atom   2 is:   1.50737
   This leads to a (voluminal) overlap ratio of  6.05 %

  COMPENSATION DENSITIES ARE OVERLAPPING !!!!
   Distance between atoms   1 and   2 is  :   2.07350
   Compensation radius around atom   1 is:   0.79672
   Compensation radius around atom   2 is:   1.30053
   This leads to a (voluminal) overlap ratio of  0.04 %
  THIS IS DANGEROUS !, as PAW formalism assume non-overlapping compensation densities.

  => Note that other spheres are overlapping !

       Overlap ratio seems to be acceptable (less than value
       of "pawovlp" input parameter): execution will continue.
       But be aware that results might be approximate,
       and even inaccurate (depending on your physical system) !

--- !WARNING
src_file: m_ewald.F90
src_line: 145
message: |
    Very large box of G neighbors in ewald: you probably do not want to do this.
     If you have a metal consider setting dipdip 0.  ng =         30
...


--- !WARNING
src_file: m_ewald.F90
src_line: 145
message: |
    Very large box of G neighbors in ewald: you probably do not want to do this.
     If you have a metal consider setting dipdip 0.  ng =         40
...


--- !WARNING
src_file: m_ewald.F90
src_line: 145
message: |
    Very large box of G neighbors in ewald: you probably do not want to do this.
     If you have a metal consider setting dipdip 0.  ng =         50
...


--- !WARNING
src_file: mkdenpos.F90
src_line: 176
message: |
    Density went too small (lower than xc_denpos) at 1348882 points
    and was set to xc_denpos =   1.00E-14. Lowest was  -0.13E-02.
    Likely due to too low boxcut or too low ecut for pseudopotential core charge.
...

 average electrostatic smooth potential [Ha] , [eV]      0.000000        0.000000

 ****** Psp strength Dij in Ha (atom      1) *****
 Component up:
  -0.01979  -0.03008  -0.00015  -0.00000   0.00000
  -0.03008  -0.04555  -0.00024  -0.00000   0.00000
  -0.00015  -0.00024   0.00027   0.00000   0.00000
  -0.00000  -0.00000   0.00000   0.00029   0.00000
   0.00000   0.00000   0.00000   0.00000   0.00030
 Component down:
  -0.01786  -0.02701  -0.00015  -0.00000   0.00000
  -0.02701  -0.04067  -0.00024  -0.00000   0.00000
  -0.00015  -0.00024   0.00055   0.00000   0.00000
  -0.00000  -0.00000   0.00000   0.00058   0.00000
   0.00000   0.00000   0.00000   0.00000   0.00058

 ****** Psp strength Dij in Ha (atom     18) *****
 Component up:
  -0.01786  -0.02701   0.00015  -0.00000   0.00000
  -0.02701  -0.04067   0.00024  -0.00000   0.00000
   0.00015   0.00024   0.00055  -0.00000  -0.00000
  -0.00000  -0.00000  -0.00000   0.00058   0.00000
   0.00000   0.00000  -0.00000   0.00000   0.00058
 Component down:
  -0.01979  -0.03008   0.00015  -0.00000   0.00000
  -0.03008  -0.04555   0.00024  -0.00000   0.00000
   0.00015   0.00024   0.00027  -0.00000  -0.00000
  -0.00000  -0.00000  -0.00000   0.00029   0.00000
   0.00000   0.00000  -0.00000   0.00000   0.00030


 ITER STEP NUMBER     1
 vtorho : nnsclo_now=2, note that nnsclo,dbl_nnsclo,istep=0 0 1
 non-scf iterations; kpt #     1  , k= (  0.00000  0.00000  0.01667  ), band residuals:
 res:  3.63E-01  2.63E-01  2.32E-01  3.25E-01  2.69E-01  2.62E-01  2.77E-01  2.71E-01
 res:  2.60E-01  2.70E-01  2.67E-01  2.55E-01  2.74E-01  2.77E-01  2.49E-01  2.47E-01
 res:  2.69E-01  2.46E-01  2.56E-01  2.36E-01  2.37E-01  2.57E-01  2.36E-01  2.31E-01
 res:  2.28E-01  2.36E-01  2.38E-01  2.25E-01  1.42E-01  2.17E-01  1.72E-01  1.30E-01
 res:  1.21E-01  1.35E-01  1.12E-01  7.03E-02  7.62E-02  9.98E-02  8.25E-02  8.80E-02
 res:  6.35E-02  8.34E-02
 ene: -8.72E-01 -8.42E-01 -8.22E-01 -8.17E-01 -7.75E-01 -7.50E-01 -7.25E-01 -6.83E-01
 ene: -6.27E-01 -5.74E-01 -5.39E-01 -5.06E-01 -4.78E-01 -4.68E-01 -4.61E-01 -4.42E-01
 ene: -4.24E-01 -4.18E-01 -4.07E-01 -3.99E-01 -3.83E-01 -3.73E-01 -3.60E-01 -3.48E-01
 ene: -3.45E-01 -3.17E-01 -2.99E-01 -2.88E-01 -2.75E-01 -2.63E-01 -1.92E-01 -1.48E-01
 ene: -5.54E-02 -1.87E-03  5.19E-02  7.02E-02  8.06E-02  9.18E-02  1.08E-01  1.23E-01
 ene:  1.48E-01  1.54E-01
 res:  8.71E-03  1.01E-02  1.03E-02  9.37E-03  1.37E-02  1.22E-02  7.92E-03  1.11E-02
 res:  1.09E-02  7.78E-03  7.53E-03  8.21E-03  2.23E-03  4.24E-03  4.62E-03  1.96E-03
 res:  3.87E-03  4.52E-03  4.41E-03  3.76E-03  5.17E-03  6.13E-03  5.57E-03  6.23E-03
 res:  5.91E-03  6.80E-03  7.10E-03  9.80E-03  1.03E-02  7.46E-03  1.35E-02  1.56E-02
 res:  2.78E-02  1.87E-02  1.70E-02  1.86E-02  9.41E-03  7.94E-03  9.80E-03  7.04E-03
 res:  8.13E-03  1.02E-02
 ene: -9.92E-01 -9.82E-01 -9.69E-01 -9.50E-01 -9.25E-01 -8.96E-01 -8.62E-01 -8.28E-01
 ene: -7.53E-01 -7.11E-01 -6.64E-01 -6.12E-01 -5.61E-01 -5.43E-01 -5.36E-01 -5.26E-01
 ene: -5.23E-01 -5.13E-01 -5.12E-01 -5.11E-01 -4.97E-01 -4.92E-01 -4.75E-01 -4.72E-01
 ene: -4.68E-01 -4.51E-01 -4.48E-01 -4.37E-01 -4.34E-01 -4.17E-01 -4.12E-01 -3.84E-01
 ene: -3.53E-01 -1.72E-01 -1.08E-01 -7.05E-02 -1.66E-02 -1.41E-02  6.73E-03  2.35E-02
 ene:  2.90E-02  4.04E-02
     eigenvalues (hartree) for   42  bands
              after    3 non-SCF iterations with    4 CG line minimizations
 -9.9159E-01 -9.8179E-01 -9.6902E-01 -9.5022E-01 -9.2476E-01 -8.9576E-01
 -8.6205E-01 -8.2750E-01 -7.5345E-01 -7.1126E-01 -6.6368E-01 -6.1218E-01
 -5.6136E-01 -5.4335E-01 -5.3648E-01 -5.2583E-01 -5.2262E-01 -5.1300E-01
 -5.1158E-01 -5.1056E-01 -4.9749E-01 -4.9153E-01 -4.7521E-01 -4.7158E-01
 -4.6843E-01 -4.5120E-01 -4.4844E-01 -4.3735E-01 -4.3402E-01 -4.1667E-01
 -4.1200E-01 -3.8360E-01 -3.5335E-01 -1.7220E-01 -1.0774E-01 -7.0484E-02
 -1.6560E-02 -1.4105E-02  6.7323E-03  2.3516E-02  2.8956E-02  4.0369E-02
 non-scf iterations; kpt #     2  , k= (  0.00000  0.00000  0.05000  ), band residuals:
 res:  4.00E-01  8.40E-01  8.98E-01  8.81E-01  2.76E-01  8.53E-01  2.53E-01  2.97E-01
 res:  2.60E-01  2.98E-01  2.45E-01  2.39E-01  2.75E-01  2.40E-01  2.78E-01  2.49E-01
 res:  2.60E-01  2.52E-01  2.37E-01  2.32E-01  1.97E-01  2.60E-01  2.52E-01  2.45E-01
 res:  1.86E-01  2.51E-01  2.16E-01  1.70E-01  1.83E-01  9.97E-02  1.10E-01  1.17E-01
 res:  1.75E-01  1.22E-01  1.15E-01  1.07E-01  1.12E-01  1.29E-01  1.07E-01  7.32E-02
 res:  1.07E-01  8.42E-02
 ene: -8.49E-01 -8.31E-01 -7.78E-01 -7.63E-01 -7.38E-01 -7.24E-01 -6.98E-01 -6.63E-01
 ene: -6.25E-01 -5.87E-01 -5.71E-01 -5.17E-01 -4.92E-01 -4.75E-01 -4.57E-01 -4.48E-01
 ene: -4.33E-01 -4.25E-01 -4.19E-01 -4.08E-01 -3.94E-01 -3.84E-01 -3.76E-01 -3.62E-01
 ene: -3.36E-01 -3.26E-01 -3.06E-01 -2.92E-01 -2.58E-01 -2.31E-01 -2.10E-01 -1.64E-01
 ene: -1.16E-01 -1.34E-03  4.65E-02  6.46E-02  7.27E-02  8.67E-02  9.55E-02  1.25E-01
 ene:  1.53E-01  1.79E-01
 res:  8.26E-03  1.12E-02  1.90E-02  1.48E-02  1.62E-02  1.83E-02  2.11E-02  2.24E-02
 res:  1.72E-02  9.03E-03  9.16E-03  1.08E-02  1.91E-03  3.52E-03  5.68E-03  3.18E-03
 res:  4.58E-03  4.69E-03  4.90E-03  6.11E-03  3.94E-03  5.62E-03  7.64E-03  6.16E-03
 res:  7.61E-03  7.10E-03  9.47E-03  8.64E-03  8.12E-03  1.16E-02  8.10E-03  1.46E-02
 res:  2.16E-02  1.87E-02  2.11E-02  1.59E-02  8.19E-03  7.43E-03  9.96E-03  1.06E-02
 res:  1.21E-02  1.12E-02
 ene: -9.89E-01 -9.79E-01 -9.65E-01 -9.47E-01 -9.19E-01 -8.92E-01 -8.60E-01 -8.25E-01
 ene: -7.51E-01 -7.11E-01 -6.63E-01 -6.13E-01 -5.62E-01 -5.50E-01 -5.42E-01 -5.31E-01
 ene: -5.21E-01 -5.17E-01 -5.12E-01 -5.11E-01 -4.97E-01 -4.96E-01 -4.77E-01 -4.73E-01
 ene: -4.71E-01 -4.56E-01 -4.45E-01 -4.41E-01 -4.36E-01 -4.18E-01 -4.16E-01 -3.82E-01
 ene: -3.52E-01 -1.68E-01 -1.24E-01 -6.64E-02 -2.16E-02 -1.38E-02 -3.00E-05  1.24E-02
 ene:  2.20E-02  4.33E-02
     eigenvalues (hartree) for   42  bands
              after    3 non-SCF iterations with    4 CG line minimizations
 -9.8900E-01 -9.7886E-01 -9.6506E-01 -9.4695E-01 -9.1934E-01 -8.9161E-01
 -8.5955E-01 -8.2511E-01 -7.5081E-01 -7.1085E-01 -6.6307E-01 -6.1267E-01
 -5.6159E-01 -5.4999E-01 -5.4245E-01 -5.3147E-01 -5.2141E-01 -5.1717E-01
 -5.1177E-01 -5.1104E-01 -4.9717E-01 -4.9570E-01 -4.7652E-01 -4.7301E-01
 -4.7082E-01 -4.5563E-01 -4.4542E-01 -4.4107E-01 -4.3627E-01 -4.1825E-01
 -4.1556E-01 -3.8213E-01 -3.5235E-01 -1.6797E-01 -1.2439E-01 -6.6434E-02
 -2.1590E-02 -1.3802E-02 -3.0011E-05  1.2390E-02  2.2049E-02  4.3329E-02
 non-scf iterations; kpt #     3  , k= (  0.00000  0.00000  0.08333  ), band residuals:
 res:  3.74E-01  1.97E-01  2.77E-01  9.39E-01  3.11E-01  2.49E-01  2.55E-01  2.45E-01
 res:  2.77E-01  2.80E-01  2.86E-01  3.09E-01  2.33E-01  2.94E-01  3.02E-01  2.54E-01
 res:  2.85E-01  2.52E-01  2.68E-01  2.63E-01  2.46E-01  2.63E-01  2.51E-01  2.38E-01
 res:  2.41E-01  2.55E-01  1.82E-01  2.00E-01  2.32E-01  1.96E-01  1.24E-01  1.54E-01
 res:  1.37E-01  1.27E-01  1.21E-01  1.01E-01  1.30E-01  1.24E-01  8.56E-02  7.14E-02
 res:  6.61E-02  9.07E-02
 ene: -8.80E-01 -8.37E-01 -8.21E-01 -8.03E-01 -7.62E-01 -7.52E-01 -7.18E-01 -6.75E-01
 ene: -6.40E-01 -5.92E-01 -5.63E-01 -5.10E-01 -4.86E-01 -4.70E-01 -4.66E-01 -4.54E-01
 ene: -4.44E-01 -4.24E-01 -4.15E-01 -4.12E-01 -3.81E-01 -3.73E-01 -3.62E-01 -3.53E-01
 ene: -3.38E-01 -3.29E-01 -3.04E-01 -2.98E-01 -2.53E-01 -2.44E-01 -2.00E-01 -1.50E-01
 ene: -8.28E-02  1.61E-02  4.57E-02  7.85E-02  8.91E-02  9.55E-02  1.12E-01  1.27E-01
 ene:  1.50E-01  1.74E-01
 res:  7.17E-03  6.14E-03  1.03E-02  1.15E-02  1.54E-02  1.15E-02  1.21E-02  1.68E-02
 res:  8.07E-03  8.21E-03  7.86E-03  8.32E-03  2.70E-03  3.10E-03  4.53E-03  3.46E-03
 res:  3.50E-03  3.80E-03  4.06E-03  6.18E-03  5.56E-03  6.04E-03  4.42E-03  5.81E-03
 res:  7.55E-03  7.39E-03  7.26E-03  8.48E-03  1.09E-02  1.19E-02  1.22E-02  1.57E-02
 res:  2.06E-02  2.34E-02  2.21E-02  9.83E-03  1.25E-02  9.84E-03  8.64E-03  1.27E-02
 res:  1.36E-02  1.18E-02
 ene: -9.86E-01 -9.79E-01 -9.64E-01 -9.45E-01 -9.22E-01 -8.91E-01 -8.58E-01 -8.23E-01
 ene: -7.51E-01 -7.08E-01 -6.61E-01 -6.11E-01 -5.62E-01 -5.60E-01 -5.53E-01 -5.42E-01
 ene: -5.27E-01 -5.18E-01 -5.14E-01 -5.08E-01 -5.07E-01 -4.91E-01 -4.84E-01 -4.76E-01
 ene: -4.70E-01 -4.60E-01 -4.50E-01 -4.43E-01 -4.41E-01 -4.22E-01 -4.11E-01 -3.79E-01
 ene: -3.49E-01 -1.59E-01 -1.20E-01 -5.66E-02 -1.12E-02 -2.80E-03  5.04E-03  1.55E-02
 ene:  2.51E-02  3.95E-02
     eigenvalues (hartree) for   42  bands
              after    3 non-SCF iterations with    4 CG line minimizations
 -9.8617E-01 -9.7867E-01 -9.6397E-01 -9.4518E-01 -9.2176E-01 -8.9088E-01
 -8.5754E-01 -8.2328E-01 -7.5055E-01 -7.0782E-01 -6.6105E-01 -6.1110E-01
 -5.6204E-01 -5.6021E-01 -5.5271E-01 -5.4209E-01 -5.2728E-01 -5.1832E-01
 -5.1438E-01 -5.0794E-01 -5.0677E-01 -4.9068E-01 -4.8405E-01 -4.7573E-01
 -4.6968E-01 -4.6004E-01 -4.4984E-01 -4.4285E-01 -4.4145E-01 -4.2203E-01
 -4.1113E-01 -3.7883E-01 -3.4858E-01 -1.5928E-01 -1.1985E-01 -5.6612E-02
 -1.1239E-02 -2.7968E-03  5.0443E-03  1.5467E-02  2.5089E-02  3.9549E-02
 non-scf iterations; kpt #     4  , k= (  0.00000  0.00000  0.11667  ), band residuals:
 res:  3.46E-01  8.07E-01  2.68E-01  2.61E-01  2.64E-01  8.78E-01  2.67E-01  2.34E-01
 res:  2.62E-01  2.45E-01  2.31E-01  2.47E-01  2.41E-01  2.65E-01  2.50E-01  2.58E-01
 res:  2.44E-01  2.53E-01  2.81E-01  2.71E-01  2.74E-01  2.79E-01  2.58E-01  2.40E-01
 res:  2.42E-01  2.29E-01  2.39E-01  1.94E-01  2.00E-01  1.69E-01  1.69E-01  1.45E-01
 res:  1.30E-01  1.62E-01  9.85E-02  9.78E-02  8.01E-02  9.19E-02  8.29E-02  9.64E-02
 res:  8.95E-02  1.11E-01
 ene: -8.76E-01 -8.40E-01 -8.16E-01 -7.76E-01 -7.64E-01 -7.35E-01 -6.83E-01 -6.55E-01
 ene: -6.09E-01 -5.79E-01 -5.53E-01 -5.14E-01 -4.92E-01 -4.80E-01 -4.63E-01 -4.45E-01
 ene: -4.32E-01 -4.23E-01 -4.13E-01 -3.99E-01 -3.94E-01 -3.75E-01 -3.62E-01 -3.59E-01
 ene: -3.40E-01 -3.37E-01 -3.13E-01 -2.87E-01 -2.70E-01 -2.54E-01 -2.44E-01 -1.92E-01
 ene: -1.41E-01  3.63E-03  3.64E-02  7.14E-02  8.24E-02  9.56E-02  1.12E-01  1.18E-01
 ene:  1.34E-01  1.54E-01
 res:  6.90E-03  7.84E-03  8.08E-03  1.20E-02  1.04E-02  1.54E-02  1.56E-02  1.24E-02
 res:  7.64E-03  1.25E-02  9.02E-03  5.34E-03  3.63E-03  4.49E-03  4.36E-03  4.01E-03
 res:  4.08E-03  6.33E-03  5.55E-03  5.09E-03  6.65E-03  5.28E-03  6.93E-03  5.90E-03
 res:  8.81E-03  7.87E-03  7.21E-03  1.01E-02  8.58E-03  9.55E-03  1.10E-02  1.53E-02
 res:  1.67E-02  1.86E-02  1.99E-02  6.35E-03  1.18E-02  1.06E-02  8.80E-03  1.19E-02
 res:  6.77E-03  1.06E-02
 ene: -9.84E-01 -9.75E-01 -9.60E-01 -9.40E-01 -9.16E-01 -8.87E-01 -8.54E-01 -8.20E-01
 ene: -7.48E-01 -7.06E-01 -6.59E-01 -6.10E-01 -5.75E-01 -5.68E-01 -5.64E-01 -5.55E-01
 ene: -5.40E-01 -5.22E-01 -5.18E-01 -5.13E-01 -5.02E-01 -4.95E-01 -4.87E-01 -4.86E-01
 ene: -4.69E-01 -4.66E-01 -4.65E-01 -4.48E-01 -4.38E-01 -4.26E-01 -4.07E-01 -3.73E-01
 ene: -3.44E-01 -1.75E-01 -1.34E-01 -6.88E-02 -1.50E-02 -1.62E-03  6.29E-03  1.75E-02
 ene:  3.25E-02  4.43E-02
     eigenvalues (hartree) for   42  bands
              after    3 non-SCF iterations with    4 CG line minimizations
 -9.8381E-01 -9.7513E-01 -9.6027E-01 -9.4036E-01 -9.1614E-01 -8.8743E-01
 -8.5390E-01 -8.2000E-01 -7.4752E-01 -7.0640E-01 -6.5911E-01 -6.0996E-01
 -5.7540E-01 -5.6782E-01 -5.6396E-01 -5.5535E-01 -5.4004E-01 -5.2182E-01
 -5.1786E-01 -5.1348E-01 -5.0235E-01 -4.9548E-01 -4.8723E-01 -4.8582E-01
 -4.6949E-01 -4.6572E-01 -4.6454E-01 -4.4774E-01 -4.3845E-01 -4.2631E-01
 -4.0686E-01 -3.7342E-01 -3.4379E-01 -1.7488E-01 -1.3418E-01 -6.8753E-02
 -1.4953E-02 -1.6225E-03  6.2912E-03  1.7523E-02  3.2527E-02  4.4275E-02
 non-scf iterations; kpt #     5  , k= (  0.00000  0.00000  0.15000  ), band residuals:
 res:  3.73E-01  8.81E-01  8.88E-01  2.58E-01  2.43E-01  2.65E-01  2.75E-01  2.81E-01
 res:  2.38E-01  2.40E-01  2.44E-01  2.29E-01  2.59E-01  2.27E-01  2.31E-01  2.44E-01
 res:  2.60E-01  2.69E-01  2.93E-01  2.43E-01  2.48E-01  2.66E-01  2.60E-01  2.54E-01
 res:  2.56E-01  2.24E-01  2.20E-01  2.30E-01  1.80E-01  1.32E-01  1.77E-01  1.68E-01
 res:  1.29E-01  9.95E-02  1.84E-01  1.28E-01  1.14E-01  8.72E-02  6.82E-02  7.60E-02
 res:  7.54E-02  7.25E-02
 ene: -8.56E-01 -8.23E-01 -7.86E-01 -7.68E-01 -7.47E-01 -7.19E-01 -6.90E-01 -6.51E-01
 ene: -6.03E-01 -5.88E-01 -5.45E-01 -5.22E-01 -5.05E-01 -4.90E-01 -4.81E-01 -4.56E-01
 ene: -4.46E-01 -4.30E-01 -4.19E-01 -4.16E-01 -4.04E-01 -3.94E-01 -3.74E-01 -3.55E-01
 ene: -3.47E-01 -3.38E-01 -3.17E-01 -3.09E-01 -2.82E-01 -2.59E-01 -2.43E-01 -1.83E-01
 ene: -1.39E-01 -1.71E-02  5.61E-02  7.73E-02  8.86E-02  9.63E-02  1.18E-01  1.32E-01
 ene:  1.50E-01  1.68E-01
 res:  5.62E-03  8.58E-03  1.12E-02  1.51E-02  1.22E-02  1.38E-02  2.07E-02  1.54E-02
 res:  9.26E-03  7.45E-03  1.12E-02  7.38E-03  5.06E-03  6.33E-03  3.75E-03  5.81E-03
 res:  4.11E-03  6.05E-03  6.15E-03  4.24E-03  6.22E-03  5.88E-03  7.99E-03  6.47E-03
 res:  9.08E-03  5.76E-03  9.31E-03  8.92E-03  7.87E-03  1.24E-02  1.39E-02  1.50E-02
 res:  2.08E-02  1.07E-02  2.73E-02  1.31E-02  7.69E-03  1.03E-02  1.75E-02  9.04E-03
 res:  9.43E-03  8.53E-03
 ene: -9.78E-01 -9.67E-01 -9.54E-01 -9.35E-01 -9.11E-01 -8.82E-01 -8.50E-01 -8.15E-01
 ene: -7.43E-01 -7.02E-01 -6.57E-01 -6.11E-01 -5.93E-01 -5.85E-01 -5.75E-01 -5.66E-01
 ene: -5.56E-01 -5.33E-01 -5.30E-01 -5.06E-01 -5.06E-01 -4.99E-01 -4.96E-01 -4.83E-01
 ene: -4.81E-01 -4.73E-01 -4.59E-01 -4.57E-01 -4.32E-01 -4.31E-01 -4.01E-01 -3.66E-01
 ene: -3.37E-01 -1.81E-01 -1.34E-01 -7.78E-02 -1.06E-02  1.65E-03  6.96E-03  1.31E-02
 ene:  3.76E-02  5.36E-02
     eigenvalues (hartree) for   42  bands
              after    3 non-SCF iterations with    4 CG line minimizations
 -9.7789E-01 -9.6732E-01 -9.5377E-01 -9.3486E-01 -9.1076E-01 -8.8207E-01
 -8.4970E-01 -8.1513E-01 -7.4271E-01 -7.0192E-01 -6.5702E-01 -6.1118E-01
 -5.9289E-01 -5.8496E-01 -5.7529E-01 -5.6620E-01 -5.5598E-01 -5.3285E-01
 -5.2963E-01 -5.0643E-01 -5.0609E-01 -4.9945E-01 -4.9578E-01 -4.8340E-01
 -4.8085E-01 -4.7314E-01 -4.5923E-01 -4.5712E-01 -4.3222E-01 -4.3072E-01
 -4.0052E-01 -3.6638E-01 -3.3691E-01 -1.8105E-01 -1.3397E-01 -7.7778E-02
 -1.0600E-02  1.6452E-03  6.9585E-03  1.3079E-02  3.7631E-02  5.3647E-02
 non-scf iterations; kpt #     6  , k= (  0.00000  0.00000  0.18333  ), band residuals:
 res:  3.74E-01  2.61E-01  2.52E-01  9.38E-01  2.44E-01  2.79E-01  2.38E-01  2.85E-01
 res:  2.51E-01  2.58E-01  2.65E-01  2.36E-01  2.41E-01  2.92E-01  2.95E-01  2.57E-01
 res:  2.81E-01  2.38E-01  2.67E-01  3.08E-01  2.85E-01  2.64E-01  2.59E-01  2.90E-01
 res:  2.71E-01  2.63E-01  2.31E-01  2.36E-01  2.17E-01  2.67E-01  1.18E-01  2.24E-01
 res:  1.63E-01  1.50E-01  8.56E-02  1.24E-01  1.26E-01  9.21E-02  8.12E-02  7.34E-02
 res:  6.55E-02  5.94E-02
 ene: -8.64E-01 -8.37E-01 -8.08E-01 -7.74E-01 -7.54E-01 -7.35E-01 -6.98E-01 -6.75E-01
 ene: -6.21E-01 -5.84E-01 -5.45E-01 -5.24E-01 -5.16E-01 -4.96E-01 -4.92E-01 -4.78E-01
 ene: -4.66E-01 -4.46E-01 -4.27E-01 -4.10E-01 -4.05E-01 -4.01E-01 -3.75E-01 -3.68E-01
 ene: -3.56E-01 -3.29E-01 -3.14E-01 -2.99E-01 -2.87E-01 -2.65E-01 -2.44E-01 -2.10E-01
 ene: -1.32E-01 -1.99E-02  4.72E-02  7.54E-02  9.25E-02  1.12E-01  1.18E-01  1.39E-01
 ene:  1.66E-01  1.91E-01
 res:  7.27E-03  7.84E-03  1.15E-02  1.29E-02  1.23E-02  1.65E-02  8.25E-03  1.44E-02
 res:  9.02E-03  8.35E-03  6.83E-03  4.70E-03  4.47E-03  5.15E-03  6.89E-03  5.96E-03
 res:  8.85E-03  6.64E-03  6.76E-03  6.16E-03  6.77E-03  6.38E-03  8.15E-03  6.75E-03
 res:  6.88E-03  9.05E-03  8.74E-03  9.10E-03  1.05E-02  1.40E-02  1.19E-02  1.14E-02
 res:  1.82E-02  8.45E-03  2.49E-02  2.45E-02  7.23E-03  8.67E-03  9.76E-03  1.07E-02
 res:  1.27E-02  1.64E-02
 ene: -9.71E-01 -9.60E-01 -9.47E-01 -9.29E-01 -9.05E-01 -8.76E-01 -8.44E-01 -8.10E-01
 ene: -7.38E-01 -6.99E-01 -6.55E-01 -6.13E-01 -6.11E-01 -6.04E-01 -5.92E-01 -5.78E-01
 ene: -5.70E-01 -5.50E-01 -5.39E-01 -5.24E-01 -5.06E-01 -5.03E-01 -4.98E-01 -4.88E-01
 ene: -4.79E-01 -4.73E-01 -4.67E-01 -4.50E-01 -4.38E-01 -4.24E-01 -3.93E-01 -3.59E-01
 ene: -3.29E-01 -1.88E-01 -1.43E-01 -9.72E-02 -7.28E-03  1.24E-02  2.19E-02  2.68E-02
 ene:  4.51E-02  6.65E-02
     eigenvalues (hartree) for   42  bands
              after    3 non-SCF iterations with    4 CG line minimizations
 -9.7101E-01 -9.6047E-01 -9.4685E-01 -9.2949E-01 -9.0536E-01 -8.7624E-01
 -8.4367E-01 -8.1041E-01 -7.3833E-01 -6.9875E-01 -6.5501E-01 -6.1314E-01
 -6.1144E-01 -6.0412E-01 -5.9190E-01 -5.7844E-01 -5.7002E-01 -5.4973E-01
 -5.3890E-01 -5.2431E-01 -5.0561E-01 -5.0252E-01 -4.9838E-01 -4.8768E-01
 -4.7854E-01 -4.7255E-01 -4.6656E-01 -4.5043E-01 -4.3807E-01 -4.2401E-01
 -3.9261E-01 -3.5933E-01 -3.2859E-01 -1.8802E-01 -1.4308E-01 -9.7179E-02
 -7.2804E-03  1.2405E-02  2.1868E-02  2.6837E-02  4.5133E-02  6.6460E-02
 non-scf iterations; kpt #     7  , k= (  0.00000  0.00000  0.21667  ), band residuals:
 res:  3.95E-01  7.24E-01  2.56E-01  3.12E-01  2.55E-01  2.85E-01  2.30E-01  2.76E-01
 res:  2.28E-01  2.37E-01  2.64E-01  2.42E-01  2.96E-01  2.52E-01  2.81E-01  3.04E-01
 res:  3.14E-01  2.32E-01  2.92E-01  2.44E-01  2.70E-01  2.98E-01  2.40E-01  2.69E-01
 res:  2.58E-01  2.93E-01  3.01E-01  2.41E-01  2.13E-01  1.92E-01  1.73E-01  1.39E-01
 res:  1.84E-01  1.15E-01  1.77E-01  1.08E-01  7.87E-02  8.76E-02  7.40E-02  1.01E-01
 res:  7.49E-02  7.41E-02
 ene: -8.50E-01 -8.22E-01 -7.98E-01 -7.80E-01 -7.53E-01 -7.25E-01 -6.90E-01 -6.55E-01
 ene: -6.16E-01 -5.89E-01 -5.73E-01 -5.49E-01 -5.36E-01 -5.30E-01 -5.14E-01 -4.97E-01
 ene: -4.80E-01 -4.69E-01 -4.49E-01 -4.37E-01 -4.10E-01 -4.06E-01 -4.00E-01 -3.84E-01
 ene: -3.56E-01 -3.35E-01 -3.28E-01 -3.05E-01 -2.87E-01 -2.78E-01 -2.65E-01 -2.23E-01
 ene: -1.53E-01 -4.03E-02  1.79E-02  7.52E-02  9.73E-02  1.06E-01  1.22E-01  1.36E-01
 ene:  1.50E-01  1.85E-01
 res:  7.85E-03  7.58E-03  7.62E-03  1.03E-02  1.09E-02  1.04E-02  1.71E-02  1.09E-02
 res:  7.59E-03  6.68E-03  8.88E-03  4.53E-03  3.92E-03  2.98E-03  4.13E-03  4.55E-03
 res:  6.09E-03  8.36E-03  5.55E-03  6.48E-03  7.64E-03  7.46E-03  6.64E-03  5.98E-03
 res:  7.81E-03  7.18E-03  8.72E-03  1.03E-02  9.61E-03  9.04E-03  9.78E-03  1.07E-02
 res:  1.20E-02  8.22E-03  1.36E-02  1.99E-02  7.24E-03  7.37E-03  9.98E-03  1.21E-02
 res:  9.30E-03  1.21E-02
 ene: -9.62E-01 -9.54E-01 -9.40E-01 -9.22E-01 -8.97E-01 -8.69E-01 -8.36E-01 -8.03E-01
 ene: -7.33E-01 -6.95E-01 -6.57E-01 -6.33E-01 -6.26E-01 -6.21E-01 -6.07E-01 -5.96E-01
 ene: -5.78E-01 -5.70E-01 -5.45E-01 -5.41E-01 -5.25E-01 -5.08E-01 -4.89E-01 -4.87E-01
 ene: -4.79E-01 -4.77E-01 -4.62E-01 -4.45E-01 -4.42E-01 -4.15E-01 -3.83E-01 -3.51E-01
 ene: -3.20E-01 -1.98E-01 -1.57E-01 -1.06E-01 -2.57E-03  2.47E-03  2.15E-02  3.65E-02
 ene:  4.66E-02  6.72E-02
     eigenvalues (hartree) for   42  bands
              after    3 non-SCF iterations with    4 CG line minimizations
 -9.6191E-01 -9.5405E-01 -9.4021E-01 -9.2203E-01 -8.9741E-01 -8.6865E-01
 -8.3550E-01 -8.0316E-01 -7.3347E-01 -6.9550E-01 -6.5696E-01 -6.3312E-01
 -6.2589E-01 -6.2141E-01 -6.0670E-01 -5.9625E-01 -5.7773E-01 -5.7005E-01
 -5.4512E-01 -5.4117E-01 -5.2461E-01 -5.0835E-01 -4.8884E-01 -4.8680E-01
 -4.7911E-01 -4.7655E-01 -4.6231E-01 -4.4520E-01 -4.4165E-01 -4.1471E-01
 -3.8348E-01 -3.5075E-01 -3.2045E-01 -1.9818E-01 -1.5679E-01 -1.0625E-01
 -2.5707E-03  2.4700E-03  2.1453E-02  3.6470E-02  4.6636E-02  6.7242E-02
 non-scf iterations; kpt #     8  , k= (  0.00000  0.00000  0.25000  ), band residuals:
 res:  3.85E-01  7.69E-01  2.68E-01  2.49E-01  2.59E-01  2.52E-01  2.44E-01  8.91E-01
 res:  2.52E-01  2.26E-01  2.45E-01  2.37E-01  2.55E-01  2.26E-01  2.12E-01  2.31E-01
 res:  3.11E-01  2.33E-01  2.91E-01  2.60E-01  2.75E-01  2.92E-01  2.85E-01  2.53E-01
 res:  2.98E-01  2.93E-01  2.42E-01  3.05E-01  2.42E-01  2.75E-01  1.62E-01  1.54E-01
 res:  1.48E-01  1.14E-01  1.80E-01  1.10E-01  9.42E-02  8.49E-02  1.06E-01  9.49E-02
 res:  8.94E-02  8.65E-02
 ene: -8.33E-01 -7.96E-01 -7.85E-01 -7.60E-01 -7.22E-01 -6.85E-01 -6.76E-01 -6.46E-01
 ene: -6.09E-01 -5.71E-01 -5.56E-01 -5.50E-01 -5.26E-01 -5.12E-01 -4.96E-01 -4.79E-01
 ene: -4.57E-01 -4.52E-01 -4.30E-01 -4.11E-01 -3.94E-01 -3.88E-01 -3.60E-01 -3.45E-01
 ene: -3.26E-01 -3.08E-01 -3.00E-01 -2.88E-01 -2.75E-01 -2.33E-01 -2.01E-01 -1.68E-01
 ene: -1.41E-01 -3.91E-02  4.73E-02  7.97E-02  1.21E-01  1.35E-01  1.53E-01  1.59E-01
 ene:  1.73E-01  2.01E-01
 res:  7.61E-03  7.74E-03  1.07E-02  1.00E-02  1.43E-02  1.47E-02  1.33E-02  1.33E-02
 res:  9.93E-03  6.01E-03  4.92E-03  8.79E-03  6.01E-03  8.79E-03  7.30E-03  9.21E-03
 res:  9.25E-03  7.47E-03  8.91E-03  7.12E-03  1.28E-02  8.96E-03  5.85E-03  7.46E-03
 res:  1.04E-02  1.40E-02  9.66E-03  1.15E-02  1.16E-02  1.13E-02  1.54E-02  1.47E-02
 res:  9.78E-03  1.15E-02  1.81E-02  2.17E-02  1.74E-02  1.47E-02  1.42E-02  2.53E-02
 res:  1.44E-02  1.39E-02
 ene: -9.52E-01 -9.44E-01 -9.31E-01 -9.10E-01 -8.89E-01 -8.60E-01 -8.28E-01 -7.95E-01
 ene: -7.29E-01 -6.94E-01 -6.65E-01 -6.51E-01 -6.42E-01 -6.36E-01 -6.16E-01 -6.14E-01
 ene: -5.91E-01 -5.79E-01 -5.66E-01 -5.46E-01 -5.40E-01 -5.11E-01 -4.97E-01 -4.88E-01
 ene: -4.76E-01 -4.67E-01 -4.52E-01 -4.50E-01 -4.30E-01 -4.03E-01 -3.72E-01 -3.39E-01
 ene: -3.09E-01 -2.05E-01 -1.61E-01 -1.08E-01 -4.54E-02  1.05E-02  2.85E-02  4.01E-02
 ene:  4.86E-02  6.32E-02
     eigenvalues (hartree) for   42  bands
              after    3 non-SCF iterations with    4 CG line minimizations
 -9.5235E-01 -9.4398E-01 -9.3107E-01 -9.1027E-01 -8.8867E-01 -8.5979E-01
 -8.2752E-01 -7.9469E-01 -7.2931E-01 -6.9405E-01 -6.6523E-01 -6.5146E-01
 -6.4181E-01 -6.3634E-01 -6.1648E-01 -6.1434E-01 -5.9071E-01 -5.7933E-01
 -5.6632E-01 -5.4561E-01 -5.4036E-01 -5.1126E-01 -4.9697E-01 -4.8843E-01
 -4.7568E-01 -4.6713E-01 -4.5193E-01 -4.5037E-01 -4.3026E-01 -4.0263E-01
 -3.7192E-01 -3.3915E-01 -3.0892E-01 -2.0475E-01 -1.6119E-01 -1.0813E-01
 -4.5401E-02  1.0479E-02  2.8486E-02  4.0085E-02  4.8602E-02  6.3236E-02
 non-scf iterations; kpt #     9  , k= (  0.00000  0.00000  0.28333  ), band residuals:
 res:  3.78E-01  8.00E-01  2.51E-01  2.53E-01  2.69E-01  2.31E-01  2.63E-01  2.66E-01
 res:  2.70E-01  2.31E-01  2.71E-01  2.59E-01  2.38E-01  2.46E-01  2.33E-01  2.43E-01
 res:  2.65E-01  2.58E-01  2.25E-01  2.23E-01  2.51E-01  2.54E-01  2.74E-01  2.75E-01
 res:  2.62E-01  2.38E-01  2.84E-01  2.70E-01  2.07E-01  2.43E-01  2.45E-01  2.27E-01
 res:  1.64E-01  1.70E-01  1.48E-01  1.33E-01  1.52E-01  1.07E-01  1.10E-01  9.46E-02
 res:  1.10E-01  8.53E-02
 ene: -8.25E-01 -7.97E-01 -7.75E-01 -7.55E-01 -7.31E-01 -7.13E-01 -6.83E-01 -6.39E-01
 ene: -6.04E-01 -5.90E-01 -5.59E-01 -5.48E-01 -5.27E-01 -5.12E-01 -5.00E-01 -4.82E-01
 ene: -4.70E-01 -4.59E-01 -4.42E-01 -4.19E-01 -3.91E-01 -3.70E-01 -3.43E-01 -3.27E-01
 ene: -3.17E-01 -3.05E-01 -2.93E-01 -2.65E-01 -2.47E-01 -2.15E-01 -1.88E-01 -1.62E-01
 ene: -7.74E-02 -1.86E-02  3.27E-02  7.43E-02  1.24E-01  1.52E-01  1.80E-01  1.96E-01
 ene:  2.05E-01  2.34E-01
 res:  6.32E-03  9.21E-03  9.45E-03  9.02E-03  7.85E-03  1.29E-02  9.63E-03  1.13E-02
 res:  9.69E-03  4.51E-03  6.37E-03  7.03E-03  6.34E-03  8.26E-03  7.62E-03  1.25E-02
 res:  8.88E-03  8.31E-03  8.65E-03  9.03E-03  1.02E-02  1.18E-02  1.16E-02  9.02E-03
 res:  1.17E-02  1.16E-02  1.13E-02  1.72E-02  1.29E-02  1.68E-02  1.85E-02  1.20E-02
 res:  2.65E-02  2.22E-02  1.84E-02  1.93E-02  3.15E-02  2.56E-02  1.50E-02  1.60E-02
 res:  1.57E-02  1.77E-02
 ene: -9.42E-01 -9.34E-01 -9.21E-01 -9.01E-01 -8.78E-01 -8.50E-01 -8.17E-01 -7.85E-01
 ene: -7.28E-01 -7.02E-01 -6.81E-01 -6.66E-01 -6.61E-01 -6.46E-01 -6.38E-01 -6.16E-01
 ene: -6.11E-01 -5.87E-01 -5.76E-01 -5.65E-01 -5.41E-01 -5.16E-01 -5.08E-01 -4.96E-01
 ene: -4.62E-01 -4.56E-01 -4.53E-01 -4.35E-01 -4.16E-01 -3.91E-01 -3.60E-01 -3.28E-01
 ene: -2.92E-01 -2.16E-01 -1.83E-01 -1.32E-01 -8.79E-02 -8.82E-03  2.93E-02  4.21E-02
 ene:  6.46E-02  7.71E-02
     eigenvalues (hartree) for   42  bands
              after    3 non-SCF iterations with    4 CG line minimizations
 -9.4192E-01 -9.3371E-01 -9.2109E-01 -9.0055E-01 -8.7834E-01 -8.4960E-01
 -8.1695E-01 -7.8488E-01 -7.2785E-01 -7.0222E-01 -6.8095E-01 -6.6646E-01
 -6.6085E-01 -6.4644E-01 -6.3819E-01 -6.1577E-01 -6.1082E-01 -5.8692E-01
 -5.7587E-01 -5.6500E-01 -5.4060E-01 -5.1551E-01 -5.0818E-01 -4.9608E-01
 -4.6240E-01 -4.5581E-01 -4.5320E-01 -4.3468E-01 -4.1647E-01 -3.9106E-01
 -3.6034E-01 -3.2819E-01 -2.9211E-01 -2.1582E-01 -1.8312E-01 -1.3154E-01
 -8.7949E-02 -8.8189E-03  2.9310E-02  4.2062E-02  6.4584E-02  7.7110E-02
 non-scf iterations; kpt #    10  , k= (  0.00000  0.00000  0.31667  ), band residuals:
 res:  3.93E-01  8.20E-01  2.37E-01  9.79E-01  2.61E-01  2.33E-01  2.53E-01  2.37E-01
 res:  2.32E-01  2.34E-01  2.52E-01  2.61E-01  2.61E-01  2.42E-01  2.29E-01  2.51E-01
 res:  2.75E-01  2.40E-01  2.47E-01  2.36E-01  2.43E-01  2.54E-01  2.35E-01  2.96E-01
 res:  2.78E-01  2.61E-01  2.97E-01  2.66E-01  2.69E-01  2.57E-01  2.16E-01  1.59E-01
 res:  1.51E-01  1.44E-01  1.86E-01  1.43E-01  1.55E-01  1.01E-01  1.21E-01  1.39E-01
 res:  1.32E-01  8.65E-02
 ene: -8.14E-01 -7.90E-01 -7.55E-01 -7.40E-01 -7.05E-01 -6.72E-01 -6.53E-01 -6.27E-01
 ene: -6.04E-01 -5.86E-01 -5.45E-01 -5.26E-01 -5.06E-01 -5.01E-01 -4.90E-01 -4.75E-01
 ene: -4.67E-01 -4.46E-01 -4.20E-01 -4.05E-01 -3.87E-01 -3.66E-01 -3.51E-01 -3.34E-01
 ene: -3.06E-01 -2.85E-01 -2.63E-01 -2.38E-01 -2.27E-01 -2.07E-01 -1.74E-01 -1.36E-01
 ene: -9.47E-02 -6.57E-02  1.91E-03  5.07E-02  1.09E-01  1.25E-01  1.71E-01  1.93E-01
 ene:  2.11E-01  2.60E-01
 res:  6.35E-03  8.44E-03  1.03E-02  1.18E-02  1.16E-02  1.23E-02  1.32E-02  1.14E-02
 res:  9.89E-03  1.04E-02  9.16E-03  9.02E-03  7.25E-03  9.57E-03  9.59E-03  1.00E-02
 res:  8.09E-03  1.18E-02  1.10E-02  9.16E-03  1.43E-02  1.31E-02  1.30E-02  1.36E-02
 res:  1.76E-02  1.10E-02  1.12E-02  1.56E-02  1.41E-02  1.59E-02  2.03E-02  2.05E-02
 res:  1.53E-02  1.75E-02  1.52E-02  2.09E-02  2.30E-02  3.01E-02  1.78E-02  3.02E-02
 res:  2.65E-02  1.20E-02
 ene: -9.31E-01 -9.17E-01 -9.08E-01 -8.90E-01 -8.66E-01 -8.38E-01 -8.07E-01 -7.75E-01
 ene: -7.36E-01 -7.17E-01 -7.01E-01 -6.83E-01 -6.72E-01 -6.60E-01 -6.46E-01 -6.35E-01
 ene: -6.10E-01 -6.08E-01 -5.85E-01 -5.70E-01 -5.39E-01 -5.25E-01 -5.20E-01 -5.08E-01
 ene: -4.63E-01 -4.49E-01 -4.40E-01 -4.23E-01 -4.04E-01 -3.77E-01 -3.47E-01 -3.15E-01
 ene: -2.81E-01 -2.33E-01 -1.96E-01 -1.57E-01 -1.25E-01 -8.13E-02 -8.45E-03  2.06E-02
 ene:  5.00E-02  8.29E-02
     eigenvalues (hartree) for   42  bands
              after    3 non-SCF iterations with    4 CG line minimizations
 -9.3071E-01 -9.1742E-01 -9.0819E-01 -8.8953E-01 -8.6618E-01 -8.3756E-01
 -8.0694E-01 -7.7480E-01 -7.3617E-01 -7.1745E-01 -7.0067E-01 -6.8258E-01
 -6.7218E-01 -6.6013E-01 -6.4556E-01 -6.3494E-01 -6.1009E-01 -6.0774E-01
 -5.8472E-01 -5.7014E-01 -5.3901E-01 -5.2454E-01 -5.2032E-01 -5.0763E-01
 -4.6328E-01 -4.4896E-01 -4.3959E-01 -4.2284E-01 -4.0403E-01 -3.7695E-01
 -3.4746E-01 -3.1458E-01 -2.8119E-01 -2.3253E-01 -1.9585E-01 -1.5744E-01
 -1.2512E-01 -8.1273E-02 -8.4546E-03  2.0579E-02  5.0011E-02  8.2942E-02
 non-scf iterations; kpt #    11  , k= (  0.00000  0.00000  0.35000  ), band residuals:
 res:  2.57E-01  8.10E-01  2.11E-01  2.76E-01  2.51E-01  2.17E-01  2.31E-01  2.54E-01
 res:  2.75E-01  2.37E-01  2.60E-01  2.30E-01  2.66E-01  2.37E-01  2.45E-01  2.68E-01
 res:  2.59E-01  2.34E-01  2.51E-01  2.37E-01  2.50E-01  2.18E-01  3.01E-01  2.51E-01
 res:  2.32E-01  2.37E-01  2.30E-01  2.75E-01  2.67E-01  2.79E-01  2.60E-01  2.71E-01
 res:  2.45E-01  1.72E-01  1.35E-01  1.42E-01  1.15E-01  1.14E-01  9.51E-02  1.16E-01
 res:  1.32E-01  1.44E-01
 ene: -8.36E-01 -7.83E-01 -7.60E-01 -7.40E-01 -7.19E-01 -6.95E-01 -6.68E-01 -6.36E-01
 ene: -6.23E-01 -6.06E-01 -5.77E-01 -5.54E-01 -5.47E-01 -5.28E-01 -5.20E-01 -4.93E-01
 ene: -4.84E-01 -4.72E-01 -4.60E-01 -4.13E-01 -3.93E-01 -3.57E-01 -3.42E-01 -3.18E-01
 ene: -2.94E-01 -2.78E-01 -2.69E-01 -2.47E-01 -2.24E-01 -1.67E-01 -1.53E-01 -1.36E-01
 ene: -1.27E-01 -7.58E-02 -8.82E-03  6.54E-02  1.02E-01  1.27E-01  1.56E-01  1.91E-01
 ene:  2.23E-01  2.61E-01
 res:  3.96E-03  6.65E-03  7.21E-03  1.03E-02  8.45E-03  7.91E-03  6.54E-03  4.99E-03
 res:  6.57E-03  7.62E-03  6.20E-03  9.11E-03  9.82E-03  7.10E-03  5.94E-03  1.08E-02
 res:  5.56E-03  1.01E-02  9.60E-03  9.23E-03  1.10E-02  1.12E-02  1.43E-02  1.59E-02
 res:  1.15E-02  1.24E-02  1.27E-02  1.58E-02  1.67E-02  1.42E-02  1.77E-02  1.30E-02
 res:  1.31E-02  1.46E-02  1.75E-02  1.89E-02  1.96E-02  3.28E-02  2.89E-02  3.35E-02
 res:  2.13E-02  2.36E-02
 ene: -9.18E-01 -9.09E-01 -8.95E-01 -8.76E-01 -8.54E-01 -8.26E-01 -7.96E-01 -7.64E-01
 ene: -7.50E-01 -7.35E-01 -7.23E-01 -7.05E-01 -6.83E-01 -6.69E-01 -6.58E-01 -6.39E-01
 ene: -6.32E-01 -6.09E-01 -6.02E-01 -5.66E-01 -5.42E-01 -5.37E-01 -5.28E-01 -5.17E-01
 ene: -4.67E-01 -4.31E-01 -4.23E-01 -4.10E-01 -3.87E-01 -3.64E-01 -3.37E-01 -3.07E-01
 ene: -2.71E-01 -2.43E-01 -2.09E-01 -1.71E-01 -1.39E-01 -1.02E-01 -6.52E-02 -3.87E-03
 ene:  4.33E-02  8.02E-02
     eigenvalues (hartree) for   42  bands
              after    3 non-SCF iterations with    4 CG line minimizations
 -9.1784E-01 -9.0874E-01 -8.9462E-01 -8.7581E-01 -8.5389E-01 -8.2649E-01
 -7.9571E-01 -7.6427E-01 -7.5003E-01 -7.3544E-01 -7.2260E-01 -7.0481E-01
 -6.8292E-01 -6.6929E-01 -6.5803E-01 -6.3851E-01 -6.3187E-01 -6.0922E-01
 -6.0187E-01 -5.6572E-01 -5.4155E-01 -5.3672E-01 -5.2835E-01 -5.1685E-01
[...]
                       1.000000  1.000000  1.000000  1.000000  1.000000  1.000000
                       1.000000  1.000000  1.000000  0.000000  0.000000  0.000000
                       0.000000  0.000000  0.000000  0.000000  0.000000  0.000000
                       1.000000  1.000000  1.000000  1.000000  1.000000  1.000000
                       1.000000  1.000000  1.000000  1.000000  1.000000  1.000000
                       1.000000  1.000000  1.000000  1.000000  1.000000  1.000000
                       1.000000  1.000000  1.000000  1.000000  1.000000  1.000000
                       1.000000  1.000000  1.000000  1.000000  1.000000  1.000000
                       1.000000  1.000000  1.000000  0.000000  0.000000  0.000000
                       0.000000  0.000000  0.000000  0.000000  0.000000  0.000000
                       1.000000  1.000000  1.000000  1.000000  1.000000  1.000000
                       1.000000  1.000000  1.000000  1.000000  1.000000  1.000000
                       1.000000  1.000000  1.000000  1.000000  1.000000  1.000000
                       1.000000  1.000000  1.000000  1.000000  1.000000  1.000000
                       1.000000  1.000000  1.000000  1.000000  1.000000  1.000000
                       1.000000  1.000000  1.000000  0.000000  0.000000  0.000000
                       0.000000  0.000000  0.000000  0.000000  0.000000  0.000000
                       1.000000  1.000000  1.000000  1.000000  1.000000  1.000000
                       1.000000  1.000000  1.000000  1.000000  1.000000  1.000000
                       1.000000  1.000000  1.000000  1.000000  1.000000  1.000000
                       1.000000  1.000000  1.000000  1.000000  1.000000  1.000000
                       1.000000  1.000000  1.000000  1.000000  1.000000  1.000000
                       1.000000  1.000000  1.000000  0.000000  0.000000  0.000000
                       0.000000  0.000000  0.000000  0.000000  0.000000  0.000000
                       1.000000  1.000000  1.000000  1.000000  1.000000  1.000000
                       1.000000  1.000000  1.000000  1.000000  1.000000  1.000000
                       1.000000  1.000000  1.000000  1.000000  1.000000  1.000000
                       1.000000  1.000000  1.000000  1.000000  1.000000  1.000000
                       1.000000  1.000000  1.000000  1.000000  1.000000  1.000000
                       1.000000  1.000000  1.000000  0.000000  0.000000  0.000000
                       0.000000  0.000000  0.000000  0.000000  0.000000  0.000000
                       1.000000  1.000000  1.000000  1.000000  1.000000  1.000000
                       1.000000  1.000000  1.000000  1.000000  1.000000  1.000000
                       1.000000  1.000000  1.000000  1.000000  1.000000  1.000000
                       1.000000  1.000000  1.000000  1.000000  1.000000  1.000000
                       1.000000  1.000000  1.000000  1.000000  1.000000  1.000000
                       1.000000  1.000000  1.000000  0.000000  0.000000  0.000000
                       0.000000  0.000000  0.000000  0.000000  0.000000  0.000000
                       1.000000  1.000000  1.000000  1.000000  1.000000  1.000000
                       1.000000  1.000000  1.000000  1.000000  1.000000  1.000000
                       1.000000  1.000000  1.000000  1.000000  1.000000  1.000000
                       1.000000  1.000000  1.000000  1.000000  1.000000  1.000000
                       1.000000  1.000000  1.000000  1.000000  1.000000  1.000000
                       1.000000  1.000000  1.000000  0.000000  0.000000  0.000000
                       0.000000  0.000000  0.000000  0.000000  0.000000  0.000000
                       1.000000  1.000000  1.000000  1.000000  1.000000  1.000000
                       1.000000  1.000000  1.000000  1.000000  1.000000  1.000000
                       1.000000  1.000000  1.000000  1.000000  1.000000  1.000000
                       1.000000  1.000000  1.000000  1.000000  1.000000  1.000000
                       1.000000  1.000000  1.000000  1.000000  1.000000  1.000000
                       1.000000  1.000000  1.000000  0.000000  0.000000  0.000000
                       0.000000  0.000000  0.000000  0.000000  0.000000  0.000000
                       1.000000  1.000000  1.000000  1.000000  1.000000  1.000000
                       1.000000  1.000000  1.000000  1.000000  1.000000  1.000000
                       1.000000  1.000000  1.000000  1.000000  1.000000  1.000000
                       1.000000  1.000000  1.000000  1.000000  1.000000  1.000000
                       1.000000  1.000000  1.000000  1.000000  1.000000  1.000000
                       1.000000  1.000000  1.000000  0.000000  0.000000  0.000000
                       0.000000  0.000000  0.000000  0.000000  0.000000  0.000000
                       1.000000  1.000000  1.000000  1.000000  1.000000  1.000000
                       1.000000  1.000000  1.000000  1.000000  1.000000  1.000000
                       1.000000  1.000000  1.000000  1.000000  1.000000  1.000000
                       1.000000  1.000000  1.000000  1.000000  1.000000  1.000000
                       1.000000  1.000000  1.000000  1.000000  1.000000  1.000000
                       1.000000  1.000000  0.999442  0.000043  0.000000  0.000000
                       0.000000  0.000000  0.000000  0.000000  0.000000  0.000000
                       1.000000  1.000000  1.000000  1.000000  1.000000  1.000000
                       1.000000  1.000000  1.000000  1.000000  1.000000  1.000000
                       1.000000  1.000000  1.000000  1.000000  1.000000  1.000000
                       1.000000  1.000000  1.000000  1.000000  1.000000  1.000000
                       1.000000  1.000000  1.000000  1.000000  1.000000  1.000000
                       1.000000  1.000000  0.917210  0.022954  0.000000  0.000000
                       0.000000  0.000000  0.000000  0.000000  0.000000  0.000000
                       1.000000  1.000000  1.000000  1.000000  1.000000  1.000000
                       1.000000  1.000000  1.000000  1.000000  1.000000  1.000000
                       1.000000  1.000000  1.000000  1.000000  1.000000  1.000000
                       1.000000  1.000000  1.000000  1.000000  1.000000  1.000000
                       1.000000  1.000000  1.000000  1.000000  1.000000  1.000000
                       1.000000  1.000000  0.538853  0.292379  0.000000  0.000000
                       0.000000  0.000000  0.000000  0.000000  0.000000  0.000000
                       1.000000  1.000000  1.000000  1.000000  1.000000  1.000000
                       1.000000  1.000000  1.000000  1.000000  1.000000  1.000000
                       1.000000  1.000000  1.000000  1.000000  1.000000  1.000000
                       1.000000  1.000000  1.000000  1.000000  1.000000  1.000000
                       1.000000  1.000000  1.000000  1.000000  1.000000  1.000000
                       1.000000  1.000000  0.478170  0.473953  0.000000  0.000000
                       0.000000  0.000000  0.000000  0.000000  0.000000  0.000000
                       1.000000  1.000000  1.000000  1.000000  1.000000  1.000000
                       1.000000  1.000000  1.000000  1.000000  1.000000  1.000000
                       1.000000  1.000000  1.000000  1.000000  1.000000  1.000000
                       1.000000  1.000000  1.000000  1.000000  1.000000  1.000000
                       1.000000  1.000000  1.000000  1.000000  1.000000  1.000000
                       1.000000  1.000000  0.548309  0.546839  0.000000  0.000000
                       0.000000  0.000000  0.000000  0.000000  0.000000  0.000000
                       1.000000  1.000000  1.000000  1.000000  1.000000  1.000000
                       1.000000  1.000000  1.000000  1.000000  1.000000  1.000000
                       1.000000  1.000000  1.000000  1.000000  1.000000  1.000000
                       1.000000  1.000000  1.000000  1.000000  1.000000  1.000000
                       1.000000  1.000000  1.000000  1.000000  1.000000  1.000000
                       1.000000  1.000000  0.591744  0.590811  0.000000  0.000000
                       0.000000  0.000000  0.000000  0.000000  0.000000  0.000000
           occopt           7
        pawecutdg      4.00000000E+01 Hartree
          pawovlp      1.0000000000E+01
           shiftk1     0.00000000E+00  0.00000000E+00  5.00000000E-01
           shiftk2     5.00000000E-01  5.00000000E-01  5.00000000E-01
          spgroup           1
           spinat      0.0000000000E+00  0.0000000000E+00  1.0000000000E+00
                       0.0000000000E+00  0.0000000000E+00  0.0000000000E+00
                       0.0000000000E+00  0.0000000000E+00  0.0000000000E+00
                       0.0000000000E+00  0.0000000000E+00  0.0000000000E+00
                       0.0000000000E+00  0.0000000000E+00  0.0000000000E+00
                       0.0000000000E+00  0.0000000000E+00  0.0000000000E+00
                       0.0000000000E+00  0.0000000000E+00  0.0000000000E+00
                       0.0000000000E+00  0.0000000000E+00  0.0000000000E+00
                       0.0000000000E+00  0.0000000000E+00  0.0000000000E+00
                       0.0000000000E+00  0.0000000000E+00  0.0000000000E+00
                       0.0000000000E+00  0.0000000000E+00  0.0000000000E+00
                       0.0000000000E+00  0.0000000000E+00  0.0000000000E+00
                       0.0000000000E+00  0.0000000000E+00  0.0000000000E+00
                       0.0000000000E+00  0.0000000000E+00  0.0000000000E+00
                       0.0000000000E+00  0.0000000000E+00  0.0000000000E+00
                       0.0000000000E+00  0.0000000000E+00  0.0000000000E+00
                       0.0000000000E+00  0.0000000000E+00  0.0000000000E+00
                       0.0000000000E+00  0.0000000000E+00 -1.0000000000E+00
           strten1     1.3743873327E-05  5.6305719150E-05  6.4120036406E-05
                       4.3056370202E-10  1.5307234405E-11  9.4589888704E-11
           toldfe1     1.00000000E-06 Hartree
           toldfe2     0.00000000E+00 Hartree
           tolwfr1     0.00000000E+00
           tolwfr2     1.00000000E-12
            typat      2  1  1  1  1  1  1  1  1  1  1  1  1  1  1  1  1  2
           useylm           1
              wtk1       0.06667    0.06667    0.06667    0.06667    0.06667    0.06667
                         0.06667    0.06667    0.06667    0.06667    0.06667    0.06667
                         0.06667    0.06667    0.06667
              wtk2       1.00000    1.00000    1.00000    1.00000    1.00000    1.00000
                         1.00000    1.00000    1.00000    1.00000    1.00000    1.00000
                         1.00000    1.00000    1.00000    1.00000
           xangst      2.1924687653E-06 -8.9347127982E+00  1.2253261414E+00
                      -6.3335522880E-06 -7.8374663590E+00  1.2252914015E+00
                      -1.2466279888E-05 -7.1553103483E+00 -9.0703680259E-03
                      -2.4889138031E-05 -5.7095725410E+00 -9.0145181006E-03
                      -3.0871693702E-05 -5.0013301057E+00  1.2253608862E+00
                      -4.2554247256E-05 -3.5682760068E+00  1.2253671991E+00
                      -4.7331677516E-05 -2.8569447694E+00 -8.9956653736E-03
                      -5.1814279312E-05 -1.4267271463E+00 -8.9761860125E-03
                      -5.0440741501E-05 -7.1470430595E-01  1.2253949192E+00
                      -3.9645629859E-05  7.1487653105E-01  1.2253974953E+00
                      -3.1339882842E-05  1.4268988477E+00 -8.9725857920E-03
                      -1.2927341998E-05  2.8571142755E+00 -8.9900137798E-03
                      -3.8630326290E-06  3.5684443157E+00  1.2253733133E+00
                       1.1398425826E-05  5.0014956819E+00  1.2253679131E+00
                       1.7259567710E-05  5.7097392667E+00 -9.0075717678E-03
                       2.3882826847E-05  7.1554797931E+00 -9.0650236494E-03
                       2.4511032039E-05  7.8376359584E+00  1.2252964978E+00
                       2.2583175635E-05  8.9348828407E+00  1.2253293079E+00
            xcart      4.1431655213E-06 -1.6884160265E+01  2.3155308307E+00
                      -1.1968679273E-05 -1.4810664994E+01  2.3154651818E+00
                      -2.3557854884E-05 -1.3521576954E+01 -1.7140511493E-02
                      -4.7033654562E-05 -1.0789528438E+01 -1.7034970430E-02
                      -5.8339046355E-05 -9.4511441999E+00  2.3155964889E+00
                      -8.0415873105E-05 -6.7430644194E+00  2.3156084185E+00
                      -8.9443907915E-05 -5.3988431909E+00 -1.6999343939E-02
                      -9.7914797673E-05 -2.6961235729E+00 -1.6962533281E-02
                      -9.5319187377E-05 -1.3505954042E+00  2.3156608019E+00
                      -7.4919382799E-05  1.3509208625E+00  2.3156656700E+00
                      -5.9223795608E-05  2.6964480415E+00 -1.6955729851E-02
                      -2.4429136002E-05  5.3991635111E+00 -1.6988663975E-02
                      -7.3000737112E-06  6.7433824771E+00  2.3156199727E+00
                       2.1539903157E-05  9.4514570936E+00  2.3156097678E+00
                       3.2615856144E-05  1.0789843504E+01 -1.7021843763E-02
                       4.5132002020E-05  1.3521897158E+01 -1.7130412085E-02
                       4.6319137788E-05  1.4810985491E+01  2.3154748124E+00
                       4.2676017161E-05  1.6884481598E+01  2.3155368145E+00
             xred      1.4616458439E-07 -2.5527750852E-01  4.9634001573E-01
                      -4.2223681918E-07 -2.2392761026E-01  4.9632594372E-01
                      -8.3108532585E-07 -2.0443743852E-01 -3.6741129211E-03
                      -1.6592758687E-06 -1.6313064403E-01 -3.6514899215E-03
                      -2.0581129135E-06 -1.4289514588E-01  4.9635408973E-01
                      -2.8369498171E-06 -1.0195074305E-01  4.9635664688E-01
                      -3.1554451678E-06 -8.1626993411E-02 -3.6438532911E-03
                      -3.4542852875E-06 -4.0763632751E-02 -3.6359628316E-03
                      -3.3627161001E-06 -2.0420123027E-02  4.9636787540E-01
                      -2.6430419906E-06  2.0425043744E-02  4.9636891889E-01
                      -2.0893255228E-06  4.0768538506E-02 -3.6345044986E-03
                      -8.6182279989E-07  8.1631836443E-02 -3.6415640132E-03
                      -2.5753550862E-07  1.0195555188E-01  4.9635912355E-01
                       7.5989505505E-07  1.4289987663E-01  4.9635693610E-01
                       1.1506378473E-06  1.6313540762E-01 -3.6486761866E-03
                       1.5921884565E-06  2.0444227980E-01 -3.6719480869E-03
                       1.6340688026E-06  2.2393245595E-01  4.9632800807E-01
                       1.5055450423E-06  2.5528236688E-01  4.9634129838E-01
            znucl        6.00000    1.00000

================================================================================
  

================================================================================

 Suggested references for the acknowledgment of ABINIT usage.

 The users of ABINIT have little formal obligations with respect to the ABINIT group
 (those specified in the GNU General Public License, http://www.gnu.org/copyleft/gpl.txt).
 However, it is common practice in the scientific literature,
 to acknowledge the efforts of people that have made the research possible.
 In this spirit, please find below suggested citations of work written by ABINIT developers,
 corresponding to implementations inside of ABINIT that you have used in the present run.
 Note also that it will be of great value to readers of publications presenting these results,
 to read papers enabling them to understand the theoretical formalism and details
 of the ABINIT implementation.
 For information on why they are suggested, see also http://www.abinit.org/about/?text=acknowledgments.
-
- [1] Implementation of the Projector Augmented-Wave Method in the ABINIT code.
- M. Torrent, F. Jollet, F. Bottin, G. Zerah, and X. Gonze Comput. Mat. Science 42, 337, (2008).
- Comment : PAW calculations. Strong suggestion to cite this paper.
-
- [2] Recent developments in the ABINIT software package.
- Computer Phys. Comm. 205, 106 (2016).
- X.Gonze, F.Jollet, F.Abreu Araujo, D.Adams, B.Amadon, T.Applencourt,
- C.Audouze, J.-M.Beuken, J.Bieder, A.Bokhanchuk, E.Bousquet, F.Bruneval
- D.Caliste, M.Cote, F.Dahm, F.Da Pieve, M.Delaveau, M.Di Gennaro,
- B.Dorado, C.Espejo, G.Geneste, L.Genovese, A.Gerossier, M.Giantomassi,
- Y.Gillet, D.R.Hamann, L.He, G.Jomard, J.Laflamme Janssen, S.Le Roux,
- A.Levitt, A.Lherbier, F.Liu, I.Lukacevic, A.Martin, C.Martins,
- M.J.T.Oliveira, S.Ponce, Y.Pouillon, T.Rangel, G.-M.Rignanese,
- A.H.Romero, B.Rousseau, O.Rubel, A.A.Shukri, M.Stankovski, M.Torrent,
- M.J.Van Setten, B.Van Troeye, M.J.Verstraete, D.Waroquier, J.Wiktor,
- B.Xue, A.Zhou, J.W.Zwanziger.
- Comment : the fourth generic paper describing the ABINIT project.
- Note that a version of this paper, that is not formatted for Computer Phys. Comm. 
- is available at http://www.abinit.org/about/ABINIT16.pdf .
- The licence allows the authors to put it on the Web.
-
- [3] ABINIT : First-principles approach of materials and nanosystem properties.
- Computer Phys. Comm. 180, 2582-2615 (2009).
- X. Gonze, B. Amadon, P.-M. Anglade, J.-M. Beuken, F. Bottin, P. Boulanger, F. Bruneval,
- D. Caliste, R. Caracas, M. Cote, T. Deutsch, L. Genovese, Ph. Ghosez, M. Giantomassi
- S. Goedecker, D.R. Hamann, P. Hermet, F. Jollet, G. Jomard, S. Leroux, M. Mancini, S. Mazevet,
- M.J.T. Oliveira, G. Onida, Y. Pouillon, T. Rangel, G.-M. Rignanese, D. Sangalli, R. Shaltaf,
- M. Torrent, M.J. Verstraete, G. Zerah, J.W. Zwanziger
- Comment : the third generic paper describing the ABINIT project.
- Note that a version of this paper, that is not formatted for Computer Phys. Comm. 
- is available at http://www.abinit.org/about/ABINIT_CPC_v10.pdf .
- The licence allows the authors to put it on the Web.
-
- [4] A brief introduction to the ABINIT software package.
- Z. Kristallogr. 220, 558-562 (2005).
- X. Gonze, G.-M. Rignanese, M. Verstraete, J.-M. Beuken, Y. Pouillon, R. Caracas, F. Jollet,
- M. Torrent, G. Zerah, M. Mikami, Ph. Ghosez, M. Veithen, J.-Y. Raty, V. Olevano, F. Bruneval,
- L. Reining, R. Godby, G. Onida, D.R. Hamann, and D.C. Allan.
- Comment : the second generic paper describing the ABINIT project. Note that this paper
- should be cited especially if you are using the GW part of ABINIT, as several authors
- of this part are not in the list of authors of the first or third paper.
- The .pdf of the latter paper is available at http://www.abinit.org/about/zfk_0505-06_558-562.pdf.
- Note that it should not redistributed (Copyright by Oldenburg Wissenshaftverlag,
- the licence allows the authors to put it on the Web).
-
- And optionally:
-
- [5] First-principles computation of material properties : the ABINIT software project. 
- X. Gonze, J.-M. Beuken, R. Caracas, F. Detraux, M. Fuchs, G.-M. Rignanese, L. Sindic,
- M. Verstraete, G. Zerah, F. Jollet, M. Torrent, A. Roy, M. Mikami, Ph. Ghosez, J.-Y. Raty, D.C. Allan.
- Computational Materials Science 25, 478-492 (2002). http://dx.doi.org/10.1016/S0927-0256(02)00325-7
- Comment : the original paper describing the ABINIT project.
  Asked to delete not existent file: zgnr_STATUS

 Calculation completed.
.Delivered  41 WARNINGs and   4 COMMENTs to log file.

--- !FinalSummary
program: abinit
version: 8.4.3
start_datetime: Mon Aug 28 13:28:39 2017
end_datetime: Mon Aug 28 15:49:18 2017
overall_cpu_time:       13614.0
overall_wall_time:        8439.0
exit_requested_by_user: no 
timelimit: 0
pseudos: 
    C   : 9fe1f4bc1aec2ed7f401e7b2e70b30a8
    H   : 1eea28dcb6589d9bd9385493a8a70912
usepaw: 1
mpi_procs: 1
omp_threads: 1
num_warnings: 41
num_comments: 4
...
