
.Version 8.4.3 of ABINIT 
.(sequential version, prepared for a x86_64_linux_gnu5.4 computer) 

.Copyright (C) 1998-2017 ABINIT group . 
 ABINIT comes with ABSOLUTELY NO WARRANTY.
 It is free software, and you are welcome to redistribute it
 under certain conditions (GNU General Public License,
 see ~abinit/COPYING or http://www.gnu.org/copyleft/gpl.txt).

 ABINIT is a project of the Universite Catholique de Louvain,
 Corning Inc. and other collaborators, see ~abinit/doc/developers/contributors.txt .
 Please read ~abinit/doc/users/acknowledgments.html for suggested
 acknowledgments of the ABINIT effort.
 For more information, see http://www.abinit.org .

.Starting date : Thu 24 Aug 2017.
- ( at 15h45 )
  
- input  file    -> zgnr.in
- output file    -> zgnr.out
- root for input  files -> zgnri
- root for output files -> zgnro


 Symmetries : space group P1 (#  1); Bravais aP (primitive triclinic)
================================================================================
 Values of the parameters that define the memory need of the present run
     intxc =       0    ionmov =       2      iscf =      17    lmnmax =       8
     lnmax =       4     mgfft =     270  mpssoang =       2    mqgrid =   21656
     natom =      18  nloc_mem =       2    nspden =       2   nspinor =       1
    nsppol =       2      nsym =       1    n1xccc =       1    ntypat =       2
    occopt =       7   xclevel =       2
-    mband =          21        mffmem =           1         mkmem =          16
       mpw =       33495          nfft =      648000          nkpt =          16
 PAW method is used; the additional fine FFT grid is defined by:
   mgfftf=       450    nfftf =   2764800
================================================================================
P This job should need less than                    1577.578 Mbytes of memory.
  Rough estimation (10% accuracy) of disk space for files :
_ WF disk file :    343.457 Mbytes ; DEN or POT disk file :     42.190 Mbytes.
================================================================================

--------------------------------------------------------------------------------
------------- Echo of variables that govern the present computation ------------
--------------------------------------------------------------------------------
-
- outvars: echo of selected default values                                      
-   iomode0 =  0 , fftalg0 =112 , wfoptalg0 = 10
-
- outvars: echo of global parameters not present in the input file              
-  max_nthreads =    0
-
 -outvars: echo values of preprocessed input variables --------
            acell      2.8345891993E+01  6.6140414651E+01  4.6652108581E+00 Bohr
              amu      1.20110000E+01  1.00794000E+00
           diemac      1.00000000E+01
          dilatmx      1.15000000E+00
             ecut      1.40000000E+01 Hartree
           ecutsm      5.00000000E-01 Hartree
-          fftalg         112
           ionmov           2
           istwfk        2    0    0    0    0    0    0    0    0    0
                         0    0    0    0    0    4
              ixc          11
              kpt      0.00000000E+00  0.00000000E+00  0.00000000E+00
                       0.00000000E+00  0.00000000E+00  3.33333333E-02
                       0.00000000E+00  0.00000000E+00  6.66666667E-02
                       0.00000000E+00  0.00000000E+00  1.00000000E-01
                       0.00000000E+00  0.00000000E+00  1.33333333E-01
                       0.00000000E+00  0.00000000E+00  1.66666667E-01
                       0.00000000E+00  0.00000000E+00  2.00000000E-01
                       0.00000000E+00  0.00000000E+00  2.33333333E-01
                       0.00000000E+00  0.00000000E+00  2.66666667E-01
                       0.00000000E+00  0.00000000E+00  3.00000000E-01
                       0.00000000E+00  0.00000000E+00  3.33333333E-01
                       0.00000000E+00  0.00000000E+00  3.66666667E-01
                       0.00000000E+00  0.00000000E+00  4.00000000E-01
                       0.00000000E+00  0.00000000E+00  4.33333333E-01
                       0.00000000E+00  0.00000000E+00  4.66666667E-01
                       0.00000000E+00  0.00000000E+00  5.00000000E-01
         kptrlatt        1    0    0      0    1    0      0    0   30
          kptrlen      1.39956326E+02
P           mkmem          16
            natom          18
            nband          21
            ngfft         120     270      20
          ngfftdg         192     450      32
             nkpt          16
           nspden           2
           nsppol           2
            nstep          80
             nsym           1
            ntime          80
           ntypat           2
              occ      1.000000  1.000000  1.000000  1.000000  1.000000  1.000000
                       1.000000  1.000000  1.000000  1.000000  1.000000  1.000000
                       0.000000  0.000000  0.000000  0.000000  0.000000  0.000000
                       0.000000  0.000000  0.000000
                       1.000000  1.000000  1.000000  1.000000  1.000000  1.000000
                       1.000000  1.000000  1.000000  1.000000  1.000000  1.000000
                       0.000000  0.000000  0.000000  0.000000  0.000000  0.000000
                       0.000000  0.000000  0.000000
                       1.000000  1.000000  1.000000  1.000000  1.000000  1.000000
                       1.000000  1.000000  1.000000  1.000000  1.000000  1.000000
                       0.000000  0.000000  0.000000  0.000000  0.000000  0.000000
                       0.000000  0.000000  0.000000
                       1.000000  1.000000  1.000000  1.000000  1.000000  1.000000
                       1.000000  1.000000  1.000000  1.000000  1.000000  1.000000
                       0.000000  0.000000  0.000000  0.000000  0.000000  0.000000
                       0.000000  0.000000  0.000000
                       1.000000  1.000000  1.000000  1.000000  1.000000  1.000000
                       1.000000  1.000000  1.000000  1.000000  1.000000  1.000000
                       0.000000  0.000000  0.000000  0.000000  0.000000  0.000000
                       0.000000  0.000000  0.000000
                       1.000000  1.000000  1.000000  1.000000  1.000000  1.000000
                       1.000000  1.000000  1.000000  1.000000  1.000000  1.000000
                       0.000000  0.000000  0.000000  0.000000  0.000000  0.000000
                       0.000000  0.000000  0.000000
                       1.000000  1.000000  1.000000  1.000000  1.000000  1.000000
                       1.000000  1.000000  1.000000  1.000000  1.000000  1.000000
                       0.000000  0.000000  0.000000  0.000000  0.000000  0.000000
                       0.000000  0.000000  0.000000
                       1.000000  1.000000  1.000000  1.000000  1.000000  1.000000
                       1.000000  1.000000  1.000000  1.000000  1.000000  1.000000
                       0.000000  0.000000  0.000000  0.000000  0.000000  0.000000
                       0.000000  0.000000  0.000000
                       1.000000  1.000000  1.000000  1.000000  1.000000  1.000000
                       1.000000  1.000000  1.000000  1.000000  1.000000  1.000000
                       0.000000  0.000000  0.000000  0.000000  0.000000  0.000000
                       0.000000  0.000000  0.000000
                       1.000000  1.000000  1.000000  1.000000  1.000000  1.000000
                       1.000000  1.000000  1.000000  1.000000  1.000000  1.000000
                       0.000000  0.000000  0.000000  0.000000  0.000000  0.000000
                       0.000000  0.000000  0.000000
                       1.000000  1.000000  1.000000  1.000000  1.000000  1.000000
                       1.000000  1.000000  1.000000  1.000000  1.000000  1.000000
                       0.000000  0.000000  0.000000  0.000000  0.000000  0.000000
                       0.000000  0.000000  0.000000
                       1.000000  1.000000  1.000000  1.000000  1.000000  1.000000
                       1.000000  1.000000  1.000000  1.000000  1.000000  1.000000
                       0.000000  0.000000  0.000000  0.000000  0.000000  0.000000
                       0.000000  0.000000  0.000000
                       1.000000  1.000000  1.000000  1.000000  1.000000  1.000000
                       1.000000  1.000000  1.000000  1.000000  1.000000  1.000000
                       0.000000  0.000000  0.000000  0.000000  0.000000  0.000000
                       0.000000  0.000000  0.000000
                       1.000000  1.000000  1.000000  1.000000  1.000000  1.000000
                       1.000000  1.000000  1.000000  1.000000  1.000000  1.000000
                       0.000000  0.000000  0.000000  0.000000  0.000000  0.000000
                       0.000000  0.000000  0.000000
                       1.000000  1.000000  1.000000  1.000000  1.000000  1.000000
                       1.000000  1.000000  1.000000  1.000000  1.000000  1.000000
                       0.000000  0.000000  0.000000  0.000000  0.000000  0.000000
                       0.000000  0.000000  0.000000
                       1.000000  1.000000  1.000000  1.000000  1.000000  1.000000
                       1.000000  1.000000  1.000000  1.000000  1.000000  1.000000
                       0.000000  0.000000  0.000000  0.000000  0.000000  0.000000
                       0.000000  0.000000  0.000000
                       1.000000  1.000000  1.000000  1.000000  1.000000  1.000000
                       1.000000  1.000000  1.000000  1.000000  1.000000  1.000000
                       0.000000  0.000000  0.000000  0.000000  0.000000  0.000000
                       0.000000  0.000000  0.000000
                       1.000000  1.000000  1.000000  1.000000  1.000000  1.000000
                       1.000000  1.000000  1.000000  1.000000  1.000000  1.000000
                       0.000000  0.000000  0.000000  0.000000  0.000000  0.000000
                       0.000000  0.000000  0.000000
                       1.000000  1.000000  1.000000  1.000000  1.000000  1.000000
                       1.000000  1.000000  1.000000  1.000000  1.000000  1.000000
                       0.000000  0.000000  0.000000  0.000000  0.000000  0.000000
                       0.000000  0.000000  0.000000
                       1.000000  1.000000  1.000000  1.000000  1.000000  1.000000
                       1.000000  1.000000  1.000000  1.000000  1.000000  1.000000
                       0.000000  0.000000  0.000000  0.000000  0.000000  0.000000
                       0.000000  0.000000  0.000000
                       1.000000  1.000000  1.000000  1.000000  1.000000  1.000000
                       1.000000  1.000000  1.000000  1.000000  1.000000  1.000000
                       0.000000  0.000000  0.000000  0.000000  0.000000  0.000000
                       0.000000  0.000000  0.000000
                       1.000000  1.000000  1.000000  1.000000  1.000000  1.000000
                       1.000000  1.000000  1.000000  1.000000  1.000000  1.000000
                       0.000000  0.000000  0.000000  0.000000  0.000000  0.000000
                       0.000000  0.000000  0.000000
                       1.000000  1.000000  1.000000  1.000000  1.000000  1.000000
                       1.000000  1.000000  1.000000  1.000000  1.000000  1.000000
                       0.000000  0.000000  0.000000  0.000000  0.000000  0.000000
                       0.000000  0.000000  0.000000
                       1.000000  1.000000  1.000000  1.000000  1.000000  1.000000
                       1.000000  1.000000  1.000000  1.000000  1.000000  1.000000
                       0.000000  0.000000  0.000000  0.000000  0.000000  0.000000
                       0.000000  0.000000  0.000000
                       1.000000  1.000000  1.000000  1.000000  1.000000  1.000000
                       1.000000  1.000000  1.000000  1.000000  1.000000  1.000000
                       0.000000  0.000000  0.000000  0.000000  0.000000  0.000000
                       0.000000  0.000000  0.000000
                       1.000000  1.000000  1.000000  1.000000  1.000000  1.000000
                       1.000000  1.000000  1.000000  1.000000  1.000000  1.000000
                       0.000000  0.000000  0.000000  0.000000  0.000000  0.000000
                       0.000000  0.000000  0.000000
                       1.000000  1.000000  1.000000  1.000000  1.000000  1.000000
                       1.000000  1.000000  1.000000  1.000000  1.000000  1.000000
                       0.000000  0.000000  0.000000  0.000000  0.000000  0.000000
                       0.000000  0.000000  0.000000
                       1.000000  1.000000  1.000000  1.000000  1.000000  1.000000
                       1.000000  1.000000  1.000000  1.000000  1.000000  1.000000
                       0.000000  0.000000  0.000000  0.000000  0.000000  0.000000
                       0.000000  0.000000  0.000000
                       1.000000  1.000000  1.000000  1.000000  1.000000  1.000000
                       1.000000  1.000000  1.000000  1.000000  1.000000  1.000000
                       0.000000  0.000000  0.000000  0.000000  0.000000  0.000000
                       0.000000  0.000000  0.000000
                       1.000000  1.000000  1.000000  1.000000  1.000000  1.000000
                       1.000000  1.000000  1.000000  1.000000  1.000000  1.000000
                       0.000000  0.000000  0.000000  0.000000  0.000000  0.000000
                       0.000000  0.000000  0.000000
                       1.000000  1.000000  1.000000  1.000000  1.000000  1.000000
                       1.000000  1.000000  1.000000  1.000000  1.000000  1.000000
                       0.000000  0.000000  0.000000  0.000000  0.000000  0.000000
                       0.000000  0.000000  0.000000
                       1.000000  1.000000  1.000000  1.000000  1.000000  1.000000
                       1.000000  1.000000  1.000000  1.000000  1.000000  1.000000
                       0.000000  0.000000  0.000000  0.000000  0.000000  0.000000
                       0.000000  0.000000  0.000000
           occopt           7
          optcell           6
        pawecutdg      4.00000000E+01 Hartree
          pawovlp      1.0000000000E+01
          spgroup           1
           spinat      0.0000000000E+00  0.0000000000E+00  1.0000000000E+00
                       0.0000000000E+00  0.0000000000E+00  0.0000000000E+00
                       0.0000000000E+00  0.0000000000E+00  0.0000000000E+00
                       0.0000000000E+00  0.0000000000E+00  0.0000000000E+00
                       0.0000000000E+00  0.0000000000E+00  0.0000000000E+00
                       0.0000000000E+00  0.0000000000E+00  0.0000000000E+00
                       0.0000000000E+00  0.0000000000E+00  0.0000000000E+00
                       0.0000000000E+00  0.0000000000E+00  0.0000000000E+00
                       0.0000000000E+00  0.0000000000E+00  0.0000000000E+00
                       0.0000000000E+00  0.0000000000E+00  0.0000000000E+00
                       0.0000000000E+00  0.0000000000E+00  0.0000000000E+00
                       0.0000000000E+00  0.0000000000E+00  0.0000000000E+00
                       0.0000000000E+00  0.0000000000E+00  0.0000000000E+00
                       0.0000000000E+00  0.0000000000E+00  0.0000000000E+00
                       0.0000000000E+00  0.0000000000E+00  0.0000000000E+00
                       0.0000000000E+00  0.0000000000E+00  0.0000000000E+00
                       0.0000000000E+00  0.0000000000E+00  0.0000000000E+00
                       0.0000000000E+00  0.0000000000E+00 -1.0000000000E+00
          strfact      2.00000000E+02
           tolvrs      1.00000000E-06
            typat      2  1  1  1  1  1  1  1  1  1  1  1  1  1  1  1  1  2
           useylm           1
              wtk        0.03333    0.06667    0.06667    0.06667    0.06667    0.06667
                         0.06667    0.06667    0.06667    0.06667    0.06667    0.06667
                         0.06667    0.06667    0.06667    0.03333
           xangst      2.1924687653E-06 -8.9347127982E+00  1.2253261414E+00
                      -6.3335522880E-06 -7.8374663590E+00  1.2252914015E+00
                      -1.2466279888E-05 -7.1553103483E+00 -9.0703680259E-03
                      -2.4889138031E-05 -5.7095725410E+00 -9.0145181006E-03
                      -3.0871693702E-05 -5.0013301057E+00  1.2253608862E+00
                      -4.2554247256E-05 -3.5682760068E+00  1.2253671991E+00
                      -4.7331677516E-05 -2.8569447694E+00 -8.9956653736E-03
                      -5.1814279312E-05 -1.4267271463E+00 -8.9761860125E-03
                      -5.0440741501E-05 -7.1470430595E-01  1.2253949192E+00
                      -3.9645629859E-05  7.1487653105E-01  1.2253974953E+00
                      -3.1339882842E-05  1.4268988477E+00 -8.9725857920E-03
                      -1.2927341998E-05  2.8571142755E+00 -8.9900137798E-03
                      -3.8630326290E-06  3.5684443157E+00  1.2253733133E+00
                       1.1398425826E-05  5.0014956819E+00  1.2253679131E+00
                       1.7259567710E-05  5.7097392667E+00 -9.0075717678E-03
                       2.3882826847E-05  7.1554797931E+00 -9.0650236494E-03
                       2.4511032039E-05  7.8376359584E+00  1.2252964978E+00
                       2.2583175635E-05  8.9348828407E+00  1.2253293079E+00
            xcart      4.1431655213E-06 -1.6884160265E+01  2.3155308307E+00
                      -1.1968679273E-05 -1.4810664994E+01  2.3154651818E+00
                      -2.3557854884E-05 -1.3521576954E+01 -1.7140511493E-02
                      -4.7033654562E-05 -1.0789528438E+01 -1.7034970430E-02
                      -5.8339046355E-05 -9.4511441999E+00  2.3155964889E+00
                      -8.0415873105E-05 -6.7430644194E+00  2.3156084185E+00
                      -8.9443907915E-05 -5.3988431909E+00 -1.6999343939E-02
                      -9.7914797673E-05 -2.6961235729E+00 -1.6962533281E-02
                      -9.5319187377E-05 -1.3505954042E+00  2.3156608019E+00
                      -7.4919382799E-05  1.3509208625E+00  2.3156656700E+00
                      -5.9223795608E-05  2.6964480415E+00 -1.6955729851E-02
                      -2.4429136002E-05  5.3991635111E+00 -1.6988663975E-02
                      -7.3000737112E-06  6.7433824771E+00  2.3156199727E+00
                       2.1539903157E-05  9.4514570936E+00  2.3156097678E+00
                       3.2615856144E-05  1.0789843504E+01 -1.7021843763E-02
                       4.5132002020E-05  1.3521897158E+01 -1.7130412085E-02
                       4.6319137788E-05  1.4810985491E+01  2.3154748124E+00
                       4.2676017161E-05  1.6884481598E+01  2.3155368145E+00
             xred      1.4616458439E-07 -2.5527750852E-01  4.9634001573E-01
                      -4.2223681918E-07 -2.2392761026E-01  4.9632594372E-01
                      -8.3108532585E-07 -2.0443743852E-01 -3.6741129211E-03
                      -1.6592758687E-06 -1.6313064403E-01 -3.6514899215E-03
                      -2.0581129135E-06 -1.4289514588E-01  4.9635408973E-01
                      -2.8369498171E-06 -1.0195074305E-01  4.9635664688E-01
                      -3.1554451678E-06 -8.1626993411E-02 -3.6438532911E-03
                      -3.4542852875E-06 -4.0763632751E-02 -3.6359628316E-03
                      -3.3627161001E-06 -2.0420123027E-02  4.9636787540E-01
                      -2.6430419906E-06  2.0425043744E-02  4.9636891889E-01
                      -2.0893255228E-06  4.0768538506E-02 -3.6345044986E-03
                      -8.6182279989E-07  8.1631836443E-02 -3.6415640132E-03
                      -2.5753550862E-07  1.0195555188E-01  4.9635912355E-01
                       7.5989505505E-07  1.4289987663E-01  4.9635693610E-01
                       1.1506378473E-06  1.6313540762E-01 -3.6486761866E-03
                       1.5921884565E-06  2.0444227980E-01 -3.6719480869E-03
                       1.6340688026E-06  2.2393245595E-01  4.9632800807E-01
                       1.5055450423E-06  2.5528236688E-01  4.9634129838E-01
            znucl        6.00000    1.00000

================================================================================

 chkinp: Checking input parameters for consistency.
