
.Version 8.4.3 of ABINIT 
.(sequential version, prepared for a x86_64_linux_gnu5.4 computer) 

.Copyright (C) 1998-2017 ABINIT group . 
 ABINIT comes with ABSOLUTELY NO WARRANTY.
 It is free software, and you are welcome to redistribute it
 under certain conditions (GNU General Public License,
 see ~abinit/COPYING or http://www.gnu.org/copyleft/gpl.txt).

 ABINIT is a project of the Universite Catholique de Louvain,
 Corning Inc. and other collaborators, see ~abinit/doc/developers/contributors.txt .
 Please read ~abinit/doc/users/acknowledgments.html for suggested
 acknowledgments of the ABINIT effort.
 For more information, see http://www.abinit.org .

.Starting date : Fri 25 Aug 2017.
- ( at 15h50 )
  
- input  file    -> zgnr.in
- output file    -> zgnr.out
- root for input  files -> zgnri
- root for output files -> zgnro

- inpspheads : Reading pseudopotential header in XML form from ../C.LDA_PW-JTH.xml
- inpspheads : Reading pseudopotential header in XML form from ../H.LDA_PW-JTH.xml

 DATASET    1 : space group P1 (#  1); Bravais aP (primitive triclinic)
================================================================================
 Values of the parameters that define the memory need for DATASET  1.
     intxc =       0    ionmov =       0      iscf =      17    lmnmax =       8
     lnmax =       4     mgfft =     225  mpssoang =       2    mqgrid =   18831
     natom =      18  nloc_mem =       2    nspden =       2   nspinor =       1
    nsppol =       2      nsym =       1    n1xccc =       1    ntypat =       2
    occopt =       7   xclevel =       2
-    mband =          42        mffmem =           1         mkmem =          15
       mpw =       22040          nfft =      345600          nkpt =          15
 PAW method is used; the additional fine FFT grid is defined by:
   mgfftf=       384    nfftf =   1866240
================================================================================
P This job should need less than                    1237.072 Mbytes of memory.
  Rough estimation (10% accuracy) of disk space for files :
_ WF disk file :    423.745 Mbytes ; DEN or POT disk file :     28.479 Mbytes.
================================================================================


 DATASET    2 : space group P1 (#  1); Bravais aP (primitive triclinic)
================================================================================
 Values of the parameters that define the memory need for DATASET  2.
     intxc =       0    ionmov =       0      iscf =      -2    lmnmax =       8
     lnmax =       4     mgfft =     225  mpssoang =       2    mqgrid =   18831
     natom =      18  nloc_mem =       2    nspden =       2   nspinor =       1
    nsppol =       2      nsym =       1    n1xccc =       1    ntypat =       2
    occopt =       7   xclevel =       2
-    mband =          40        mffmem =           1         mkmem =          16
       mpw =       22062          nfft =      345600          nkpt =          16
 PAW method is used; the additional fine FFT grid is defined by:
   mgfftf=       384    nfftf =   1866240
================================================================================
P This job should need less than                    1046.730 Mbytes of memory.
  Rough estimation (10% accuracy) of disk space for files :
_ WF disk file :    430.900 Mbytes ; DEN or POT disk file :     28.479 Mbytes.
================================================================================

--------------------------------------------------------------------------------
------------- Echo of variables that govern the present computation ------------
--------------------------------------------------------------------------------
-
- outvars: echo of selected default values                                      
-   iomode0 =  0 , fftalg0 =112 , wfoptalg0 = 10
-
- outvars: echo of global parameters not present in the input file              
-  max_nthreads =    0
-
 -outvars: echo values of preprocessed input variables --------
            acell      2.8345891993E+01  6.6140414651E+01  4.6652108581E+00 Bohr
              amu      1.20110000E+01  1.00794000E+00
           diemac      1.00000000E+01
             ecut      1.40000000E+01 Hartree
           enunit1          0
           enunit2          1
-          fftalg         112
           getden1          0
           getden2         -1
             iscf1         17
             iscf2         -2
           istwfk2       2    0    0    0    0    0    0    0    0    0
                         0    0    0    0    0    4
              ixc          11
           jdtset        1    2
              kpt1     0.00000000E+00  0.00000000E+00  1.66666667E-02
                       0.00000000E+00  0.00000000E+00  5.00000000E-02
                       0.00000000E+00  0.00000000E+00  8.33333333E-02
                       0.00000000E+00  0.00000000E+00  1.16666667E-01
                       0.00000000E+00  0.00000000E+00  1.50000000E-01
                       0.00000000E+00  0.00000000E+00  1.83333333E-01
                       0.00000000E+00  0.00000000E+00  2.16666667E-01
                       0.00000000E+00  0.00000000E+00  2.50000000E-01
                       0.00000000E+00  0.00000000E+00  2.83333333E-01
                       0.00000000E+00  0.00000000E+00  3.16666667E-01
                       0.00000000E+00  0.00000000E+00  3.50000000E-01
                       0.00000000E+00  0.00000000E+00  3.83333333E-01
                       0.00000000E+00  0.00000000E+00  4.16666667E-01
                       0.00000000E+00  0.00000000E+00  4.50000000E-01
                       0.00000000E+00  0.00000000E+00  4.83333333E-01
              kpt2     0.00000000E+00  0.00000000E+00  0.00000000E+00
                       0.00000000E+00  0.00000000E+00  3.33333333E-02
                       0.00000000E+00  0.00000000E+00  6.66666667E-02
                       0.00000000E+00  0.00000000E+00  1.00000000E-01
                       0.00000000E+00  0.00000000E+00  1.33333333E-01
                       0.00000000E+00  0.00000000E+00  1.66666667E-01
                       0.00000000E+00  0.00000000E+00  2.00000000E-01
                       0.00000000E+00  0.00000000E+00  2.33333333E-01
                       0.00000000E+00  0.00000000E+00  2.66666667E-01
                       0.00000000E+00  0.00000000E+00  3.00000000E-01
                       0.00000000E+00  0.00000000E+00  3.33333333E-01
                       0.00000000E+00  0.00000000E+00  3.66666667E-01
                       0.00000000E+00  0.00000000E+00  4.00000000E-01
                       0.00000000E+00  0.00000000E+00  4.33333333E-01
                       0.00000000E+00  0.00000000E+00  4.66666667E-01
                       0.00000000E+00  0.00000000E+00  5.00000000E-01
           kptopt1          1
           kptopt2         -1
         kptrlatt        1    0    0      0    1    0      0    0   30
          kptrlen1     1.39956326E+02
          kptrlen2     3.00000000E+01
P           mkmem1         15
P           mkmem2         16
            natom          18
            nband1         42
            nband2         40
           nbdbuf1          0
           nbdbuf2          2
           ndtset           2
            ngfft          96     225      16
          ngfftdg         162     384      30
             nkpt1         15
             nkpt2         16
           nspden           2
           nsppol           2
            nstep          80
             nsym           1
           ntypat           2
              occ      1.000000  1.000000  1.000000  1.000000  1.000000  1.000000
                       1.000000  1.000000  1.000000  1.000000  1.000000  1.000000
                       1.000000  1.000000  1.000000  1.000000  1.000000  1.000000
                       1.000000  1.000000  1.000000  1.000000  1.000000  1.000000
                       1.000000  1.000000  1.000000  1.000000  1.000000  1.000000
                       1.000000  1.000000  1.000000  0.000000  0.000000  0.000000
                       0.000000  0.000000  0.000000  0.000000  0.000000  0.000000
                       1.000000  1.000000  1.000000  1.000000  1.000000  1.000000
                       1.000000  1.000000  1.000000  1.000000  1.000000  1.000000
                       1.000000  1.000000  1.000000  1.000000  1.000000  1.000000
                       1.000000  1.000000  1.000000  1.000000  1.000000  1.000000
                       1.000000  1.000000  1.000000  1.000000  1.000000  1.000000
                       1.000000  1.000000  1.000000  0.000000  0.000000  0.000000
                       0.000000  0.000000  0.000000  0.000000  0.000000  0.000000
                       1.000000  1.000000  1.000000  1.000000  1.000000  1.000000
                       1.000000  1.000000  1.000000  1.000000  1.000000  1.000000
                       1.000000  1.000000  1.000000  1.000000  1.000000  1.000000
                       1.000000  1.000000  1.000000  1.000000  1.000000  1.000000
                       1.000000  1.000000  1.000000  1.000000  1.000000  1.000000
                       1.000000  1.000000  1.000000  0.000000  0.000000  0.000000
                       0.000000  0.000000  0.000000  0.000000  0.000000  0.000000
                       1.000000  1.000000  1.000000  1.000000  1.000000  1.000000
                       1.000000  1.000000  1.000000  1.000000  1.000000  1.000000
                       1.000000  1.000000  1.000000  1.000000  1.000000  1.000000
                       1.000000  1.000000  1.000000  1.000000  1.000000  1.000000
                       1.000000  1.000000  1.000000  1.000000  1.000000  1.000000
                       1.000000  1.000000  1.000000  0.000000  0.000000  0.000000
                       0.000000  0.000000  0.000000  0.000000  0.000000  0.000000
                       1.000000  1.000000  1.000000  1.000000  1.000000  1.000000
                       1.000000  1.000000  1.000000  1.000000  1.000000  1.000000
                       1.000000  1.000000  1.000000  1.000000  1.000000  1.000000
                       1.000000  1.000000  1.000000  1.000000  1.000000  1.000000
                       1.000000  1.000000  1.000000  1.000000  1.000000  1.000000
                       1.000000  1.000000  1.000000  0.000000  0.000000  0.000000
                       0.000000  0.000000  0.000000  0.000000  0.000000  0.000000
                       1.000000  1.000000  1.000000  1.000000  1.000000  1.000000
                       1.000000  1.000000  1.000000  1.000000  1.000000  1.000000
                       1.000000  1.000000  1.000000  1.000000  1.000000  1.000000
                       1.000000  1.000000  1.000000  1.000000  1.000000  1.000000
                       1.000000  1.000000  1.000000  1.000000  1.000000  1.000000
                       1.000000  1.000000  1.000000  0.000000  0.000000  0.000000
                       0.000000  0.000000  0.000000  0.000000  0.000000  0.000000
                       1.000000  1.000000  1.000000  1.000000  1.000000  1.000000
                       1.000000  1.000000  1.000000  1.000000  1.000000  1.000000
                       1.000000  1.000000  1.000000  1.000000  1.000000  1.000000
                       1.000000  1.000000  1.000000  1.000000  1.000000  1.000000
                       1.000000  1.000000  1.000000  1.000000  1.000000  1.000000
                       1.000000  1.000000  1.000000  0.000000  0.000000  0.000000
                       0.000000  0.000000  0.000000  0.000000  0.000000  0.000000
                       1.000000  1.000000  1.000000  1.000000  1.000000  1.000000
                       1.000000  1.000000  1.000000  1.000000  1.000000  1.000000
                       1.000000  1.000000  1.000000  1.000000  1.000000  1.000000
                       1.000000  1.000000  1.000000  1.000000  1.000000  1.000000
                       1.000000  1.000000  1.000000  1.000000  1.000000  1.000000
                       1.000000  1.000000  1.000000  0.000000  0.000000  0.000000
                       0.000000  0.000000  0.000000  0.000000  0.000000  0.000000
                       1.000000  1.000000  1.000000  1.000000  1.000000  1.000000
                       1.000000  1.000000  1.000000  1.000000  1.000000  1.000000
                       1.000000  1.000000  1.000000  1.000000  1.000000  1.000000
                       1.000000  1.000000  1.000000  1.000000  1.000000  1.000000
                       1.000000  1.000000  1.000000  1.000000  1.000000  1.000000
                       1.000000  1.000000  1.000000  0.000000  0.000000  0.000000
                       0.000000  0.000000  0.000000  0.000000  0.000000  0.000000
                       1.000000  1.000000  1.000000  1.000000  1.000000  1.000000
                       1.000000  1.000000  1.000000  1.000000  1.000000  1.000000
                       1.000000  1.000000  1.000000  1.000000  1.000000  1.000000
                       1.000000  1.000000  1.000000  1.000000  1.000000  1.000000
                       1.000000  1.000000  1.000000  1.000000  1.000000  1.000000
                       1.000000  1.000000  1.000000  0.000000  0.000000  0.000000
                       0.000000  0.000000  0.000000  0.000000  0.000000  0.000000
                       1.000000  1.000000  1.000000  1.000000  1.000000  1.000000
                       1.000000  1.000000  1.000000  1.000000  1.000000  1.000000
                       1.000000  1.000000  1.000000  1.000000  1.000000  1.000000
                       1.000000  1.000000  1.000000  1.000000  1.000000  1.000000
                       1.000000  1.000000  1.000000  1.000000  1.000000  1.000000
                       1.000000  1.000000  1.000000  0.000000  0.000000  0.000000
                       0.000000  0.000000  0.000000  0.000000  0.000000  0.000000
                       1.000000  1.000000  1.000000  1.000000  1.000000  1.000000
                       1.000000  1.000000  1.000000  1.000000  1.000000  1.000000
                       1.000000  1.000000  1.000000  1.000000  1.000000  1.000000
                       1.000000  1.000000  1.000000  1.000000  1.000000  1.000000
                       1.000000  1.000000  1.000000  1.000000  1.000000  1.000000
                       1.000000  1.000000  1.000000  0.000000  0.000000  0.000000
                       0.000000  0.000000  0.000000  0.000000  0.000000  0.000000
                       1.000000  1.000000  1.000000  1.000000  1.000000  1.000000
                       1.000000  1.000000  1.000000  1.000000  1.000000  1.000000
                       1.000000  1.000000  1.000000  1.000000  1.000000  1.000000
                       1.000000  1.000000  1.000000  1.000000  1.000000  1.000000
                       1.000000  1.000000  1.000000  1.000000  1.000000  1.000000
                       1.000000  1.000000  1.000000  0.000000  0.000000  0.000000
                       0.000000  0.000000  0.000000  0.000000  0.000000  0.000000
                       1.000000  1.000000  1.000000  1.000000  1.000000  1.000000
                       1.000000  1.000000  1.000000  1.000000  1.000000  1.000000
                       1.000000  1.000000  1.000000  1.000000  1.000000  1.000000
                       1.000000  1.000000  1.000000  1.000000  1.000000  1.000000
                       1.000000  1.000000  1.000000  1.000000  1.000000  1.000000
                       1.000000  1.000000  1.000000  0.000000  0.000000  0.000000
                       0.000000  0.000000  0.000000  0.000000  0.000000  0.000000
                       1.000000  1.000000  1.000000  1.000000  1.000000  1.000000
                       1.000000  1.000000  1.000000  1.000000  1.000000  1.000000
                       1.000000  1.000000  1.000000  1.000000  1.000000  1.000000
                       1.000000  1.000000  1.000000  1.000000  1.000000  1.000000
                       1.000000  1.000000  1.000000  1.000000  1.000000  1.000000
                       1.000000  1.000000  1.000000  0.000000  0.000000  0.000000
                       0.000000  0.000000  0.000000  0.000000  0.000000  0.000000
                       1.000000  1.000000  1.000000  1.000000  1.000000  1.000000
                       1.000000  1.000000  1.000000  1.000000  1.000000  1.000000
                       1.000000  1.000000  1.000000  1.000000  1.000000  1.000000
                       1.000000  1.000000  1.000000  1.000000  1.000000  1.000000
                       1.000000  1.000000  1.000000  1.000000  1.000000  1.000000
                       1.000000  1.000000  1.000000  0.000000  0.000000  0.000000
                       0.000000  0.000000  0.000000  0.000000  0.000000  0.000000
                       1.000000  1.000000  1.000000  1.000000  1.000000  1.000000
                       1.000000  1.000000  1.000000  1.000000  1.000000  1.000000
                       1.000000  1.000000  1.000000  1.000000  1.000000  1.000000
                       1.000000  1.000000  1.000000  1.000000  1.000000  1.000000
                       1.000000  1.000000  1.000000  1.000000  1.000000  1.000000
                       1.000000  1.000000  1.000000  0.000000  0.000000  0.000000
                       0.000000  0.000000  0.000000  0.000000  0.000000  0.000000
                       1.000000  1.000000  1.000000  1.000000  1.000000  1.000000
                       1.000000  1.000000  1.000000  1.000000  1.000000  1.000000
                       1.000000  1.000000  1.000000  1.000000  1.000000  1.000000
                       1.000000  1.000000  1.000000  1.000000  1.000000  1.000000
                       1.000000  1.000000  1.000000  1.000000  1.000000  1.000000
                       1.000000  1.000000  1.000000  0.000000  0.000000  0.000000
                       0.000000  0.000000  0.000000  0.000000  0.000000  0.000000
                       1.000000  1.000000  1.000000  1.000000  1.000000  1.000000
                       1.000000  1.000000  1.000000  1.000000  1.000000  1.000000
                       1.000000  1.000000  1.000000  1.000000  1.000000  1.000000
                       1.000000  1.000000  1.000000  1.000000  1.000000  1.000000
                       1.000000  1.000000  1.000000  1.000000  1.000000  1.000000
                       1.000000  1.000000  1.000000  0.000000  0.000000  0.000000
                       0.000000  0.000000  0.000000  0.000000  0.000000  0.000000
                       1.000000  1.000000  1.000000  1.000000  1.000000  1.000000
                       1.000000  1.000000  1.000000  1.000000  1.000000  1.000000
                       1.000000  1.000000  1.000000  1.000000  1.000000  1.000000
                       1.000000  1.000000  1.000000  1.000000  1.000000  1.000000
                       1.000000  1.000000  1.000000  1.000000  1.000000  1.000000
                       1.000000  1.000000  1.000000  0.000000  0.000000  0.000000
                       0.000000  0.000000  0.000000  0.000000  0.000000  0.000000
                       1.000000  1.000000  1.000000  1.000000  1.000000  1.000000
                       1.000000  1.000000  1.000000  1.000000  1.000000  1.000000
                       1.000000  1.000000  1.000000  1.000000  1.000000  1.000000
                       1.000000  1.000000  1.000000  1.000000  1.000000  1.000000
                       1.000000  1.000000  1.000000  1.000000  1.000000  1.000000
                       1.000000  1.000000  1.000000  0.000000  0.000000  0.000000
                       0.000000  0.000000  0.000000  0.000000  0.000000  0.000000
                       1.000000  1.000000  1.000000  1.000000  1.000000  1.000000
                       1.000000  1.000000  1.000000  1.000000  1.000000  1.000000
                       1.000000  1.000000  1.000000  1.000000  1.000000  1.000000
                       1.000000  1.000000  1.000000  1.000000  1.000000  1.000000
                       1.000000  1.000000  1.000000  1.000000  1.000000  1.000000
                       1.000000  1.000000  1.000000  0.000000  0.000000  0.000000
                       0.000000  0.000000  0.000000  0.000000  0.000000  0.000000
                       1.000000  1.000000  1.000000  1.000000  1.000000  1.000000
                       1.000000  1.000000  1.000000  1.000000  1.000000  1.000000
                       1.000000  1.000000  1.000000  1.000000  1.000000  1.000000
                       1.000000  1.000000  1.000000  1.000000  1.000000  1.000000
                       1.000000  1.000000  1.000000  1.000000  1.000000  1.000000
                       1.000000  1.000000  1.000000  0.000000  0.000000  0.000000
                       0.000000  0.000000  0.000000  0.000000  0.000000  0.000000
                       1.000000  1.000000  1.000000  1.000000  1.000000  1.000000
                       1.000000  1.000000  1.000000  1.000000  1.000000  1.000000
                       1.000000  1.000000  1.000000  1.000000  1.000000  1.000000
                       1.000000  1.000000  1.000000  1.000000  1.000000  1.000000
                       1.000000  1.000000  1.000000  1.000000  1.000000  1.000000
                       1.000000  1.000000  1.000000  0.000000  0.000000  0.000000
                       0.000000  0.000000  0.000000  0.000000  0.000000  0.000000
                       1.000000  1.000000  1.000000  1.000000  1.000000  1.000000
                       1.000000  1.000000  1.000000  1.000000  1.000000  1.000000
                       1.000000  1.000000  1.000000  1.000000  1.000000  1.000000
                       1.000000  1.000000  1.000000  1.000000  1.000000  1.000000
                       1.000000  1.000000  1.000000  1.000000  1.000000  1.000000
                       1.000000  1.000000  1.000000  0.000000  0.000000  0.000000
                       0.000000  0.000000  0.000000  0.000000  0.000000  0.000000
                       1.000000  1.000000  1.000000  1.000000  1.000000  1.000000
                       1.000000  1.000000  1.000000  1.000000  1.000000  1.000000
                       1.000000  1.000000  1.000000  1.000000  1.000000  1.000000
                       1.000000  1.000000  1.000000  1.000000  1.000000  1.000000
                       1.000000  1.000000  1.000000  1.000000  1.000000  1.000000
                       1.000000  1.000000  1.000000  0.000000  0.000000  0.000000
                       0.000000  0.000000  0.000000  0.000000  0.000000  0.000000
                       1.000000  1.000000  1.000000  1.000000  1.000000  1.000000
                       1.000000  1.000000  1.000000  1.000000  1.000000  1.000000
                       1.000000  1.000000  1.000000  1.000000  1.000000  1.000000
                       1.000000  1.000000  1.000000  1.000000  1.000000  1.000000
                       1.000000  1.000000  1.000000  1.000000  1.000000  1.000000
                       1.000000  1.000000  1.000000  0.000000  0.000000  0.000000
                       0.000000  0.000000  0.000000  0.000000  0.000000  0.000000
                       1.000000  1.000000  1.000000  1.000000  1.000000  1.000000
                       1.000000  1.000000  1.000000  1.000000  1.000000  1.000000
                       1.000000  1.000000  1.000000  1.000000  1.000000  1.000000
                       1.000000  1.000000  1.000000  1.000000  1.000000  1.000000
                       1.000000  1.000000  1.000000  1.000000  1.000000  1.000000
                       1.000000  1.000000  1.000000  0.000000  0.000000  0.000000
                       0.000000  0.000000  0.000000  0.000000  0.000000  0.000000
                       1.000000  1.000000  1.000000  1.000000  1.000000  1.000000
                       1.000000  1.000000  1.000000  1.000000  1.000000  1.000000
                       1.000000  1.000000  1.000000  1.000000  1.000000  1.000000
                       1.000000  1.000000  1.000000  1.000000  1.000000  1.000000
                       1.000000  1.000000  1.000000  1.000000  1.000000  1.000000
                       1.000000  1.000000  1.000000  0.000000  0.000000  0.000000
                       0.000000  0.000000  0.000000  0.000000  0.000000  0.000000
                       1.000000  1.000000  1.000000  1.000000  1.000000  1.000000
                       1.000000  1.000000  1.000000  1.000000  1.000000  1.000000
                       1.000000  1.000000  1.000000  1.000000  1.000000  1.000000
                       1.000000  1.000000  1.000000  1.000000  1.000000  1.000000
                       1.000000  1.000000  1.000000  1.000000  1.000000  1.000000
                       1.000000  1.000000  1.000000  0.000000  0.000000  0.000000
                       0.000000  0.000000  0.000000  0.000000  0.000000  0.000000
           occopt           7
        pawecutdg      4.00000000E+01 Hartree
          pawovlp      1.0000000000E+01
           shiftk1     0.00000000E+00  0.00000000E+00  5.00000000E-01
           shiftk2     5.00000000E-01  5.00000000E-01  5.00000000E-01
          spgroup           1
           spinat      0.0000000000E+00  0.0000000000E+00  1.0000000000E+00
                       0.0000000000E+00  0.0000000000E+00  0.0000000000E+00
                       0.0000000000E+00  0.0000000000E+00  0.0000000000E+00
                       0.0000000000E+00  0.0000000000E+00  0.0000000000E+00
                       0.0000000000E+00  0.0000000000E+00  0.0000000000E+00
                       0.0000000000E+00  0.0000000000E+00  0.0000000000E+00
                       0.0000000000E+00  0.0000000000E+00  0.0000000000E+00
                       0.0000000000E+00  0.0000000000E+00  0.0000000000E+00
                       0.0000000000E+00  0.0000000000E+00  0.0000000000E+00
                       0.0000000000E+00  0.0000000000E+00  0.0000000000E+00
                       0.0000000000E+00  0.0000000000E+00  0.0000000000E+00
                       0.0000000000E+00  0.0000000000E+00  0.0000000000E+00
                       0.0000000000E+00  0.0000000000E+00  0.0000000000E+00
                       0.0000000000E+00  0.0000000000E+00  0.0000000000E+00
                       0.0000000000E+00  0.0000000000E+00  0.0000000000E+00
                       0.0000000000E+00  0.0000000000E+00  0.0000000000E+00
                       0.0000000000E+00  0.0000000000E+00  0.0000000000E+00
                       0.0000000000E+00  0.0000000000E+00 -1.0000000000E+00
           toldfe1     1.00000000E-06 Hartree
           toldfe2     0.00000000E+00 Hartree
           tolwfr1     0.00000000E+00
           tolwfr2     1.00000000E-12
            typat      2  1  1  1  1  1  1  1  1  1  1  1  1  1  1  1  1  2
           useylm           1
              wtk1       0.06667    0.06667    0.06667    0.06667    0.06667    0.06667
                         0.06667    0.06667    0.06667    0.06667    0.06667    0.06667
                         0.06667    0.06667    0.06667
              wtk2       1.00000    1.00000    1.00000    1.00000    1.00000    1.00000
                         1.00000    1.00000    1.00000    1.00000    1.00000    1.00000
                         1.00000    1.00000    1.00000    1.00000
           xangst      2.1924687653E-06 -8.9347127982E+00  1.2253261414E+00
                      -6.3335522880E-06 -7.8374663590E+00  1.2252914015E+00
                      -1.2466279888E-05 -7.1553103483E+00 -9.0703680259E-03
                      -2.4889138031E-05 -5.7095725410E+00 -9.0145181006E-03
                      -3.0871693702E-05 -5.0013301057E+00  1.2253608862E+00
                      -4.2554247256E-05 -3.5682760068E+00  1.2253671991E+00
                      -4.7331677516E-05 -2.8569447694E+00 -8.9956653736E-03
                      -5.1814279312E-05 -1.4267271463E+00 -8.9761860125E-03
                      -5.0440741501E-05 -7.1470430595E-01  1.2253949192E+00
                      -3.9645629859E-05  7.1487653105E-01  1.2253974953E+00
                      -3.1339882842E-05  1.4268988477E+00 -8.9725857920E-03
                      -1.2927341998E-05  2.8571142755E+00 -8.9900137798E-03
                      -3.8630326290E-06  3.5684443157E+00  1.2253733133E+00
                       1.1398425826E-05  5.0014956819E+00  1.2253679131E+00
                       1.7259567710E-05  5.7097392667E+00 -9.0075717678E-03
                       2.3882826847E-05  7.1554797931E+00 -9.0650236494E-03
                       2.4511032039E-05  7.8376359584E+00  1.2252964978E+00
                       2.2583175635E-05  8.9348828407E+00  1.2253293079E+00
            xcart      4.1431655213E-06 -1.6884160265E+01  2.3155308307E+00
                      -1.1968679273E-05 -1.4810664994E+01  2.3154651818E+00
                      -2.3557854884E-05 -1.3521576954E+01 -1.7140511493E-02
                      -4.7033654562E-05 -1.0789528438E+01 -1.7034970430E-02
                      -5.8339046355E-05 -9.4511441999E+00  2.3155964889E+00
                      -8.0415873105E-05 -6.7430644194E+00  2.3156084185E+00
                      -8.9443907915E-05 -5.3988431909E+00 -1.6999343939E-02
                      -9.7914797673E-05 -2.6961235729E+00 -1.6962533281E-02
                      -9.5319187377E-05 -1.3505954042E+00  2.3156608019E+00
                      -7.4919382799E-05  1.3509208625E+00  2.3156656700E+00
                      -5.9223795608E-05  2.6964480415E+00 -1.6955729851E-02
                      -2.4429136002E-05  5.3991635111E+00 -1.6988663975E-02
                      -7.3000737112E-06  6.7433824771E+00  2.3156199727E+00
                       2.1539903157E-05  9.4514570936E+00  2.3156097678E+00
                       3.2615856144E-05  1.0789843504E+01 -1.7021843763E-02
                       4.5132002020E-05  1.3521897158E+01 -1.7130412085E-02
                       4.6319137788E-05  1.4810985491E+01  2.3154748124E+00
                       4.2676017161E-05  1.6884481598E+01  2.3155368145E+00
             xred      1.4616458439E-07 -2.5527750852E-01  4.9634001573E-01
                      -4.2223681918E-07 -2.2392761026E-01  4.9632594372E-01
                      -8.3108532585E-07 -2.0443743852E-01 -3.6741129211E-03
                      -1.6592758687E-06 -1.6313064403E-01 -3.6514899215E-03
                      -2.0581129135E-06 -1.4289514588E-01  4.9635408973E-01
                      -2.8369498171E-06 -1.0195074305E-01  4.9635664688E-01
                      -3.1554451678E-06 -8.1626993411E-02 -3.6438532911E-03
                      -3.4542852875E-06 -4.0763632751E-02 -3.6359628316E-03
                      -3.3627161001E-06 -2.0420123027E-02  4.9636787540E-01
                      -2.6430419906E-06  2.0425043744E-02  4.9636891889E-01
                      -2.0893255228E-06  4.0768538506E-02 -3.6345044986E-03
                      -8.6182279989E-07  8.1631836443E-02 -3.6415640132E-03
                      -2.5753550862E-07  1.0195555188E-01  4.9635912355E-01
                       7.5989505505E-07  1.4289987663E-01  4.9635693610E-01
                       1.1506378473E-06  1.6313540762E-01 -3.6486761866E-03
                       1.5921884565E-06  2.0444227980E-01 -3.6719480869E-03
                       1.6340688026E-06  2.2393245595E-01  4.9632800807E-01
                       1.5055450423E-06  2.5528236688E-01  4.9634129838E-01
            znucl        6.00000    1.00000

================================================================================

 chkinp: Checking input parameters for consistency, jdtset=   1.

 chkinp: Checking input parameters for consistency, jdtset=   2.

================================================================================
== DATASET  1 ==================================================================
-   nproc =    1

 Exchange-correlation functional for the present dataset will be:
  GGA: Perdew-Burke-Ernzerhof functional - ixc=11
 Citation for XC functional:
  J.P.Perdew, K.Burke, M.Ernzerhof, PRL 77, 3865 (1996)

 Real(R)+Recip(G) space primitive vectors, cartesian coordinates (Bohr,Bohr^-1):
 R(1)= 28.3458920  0.0000000  0.0000000  G(1)=  0.0352785  0.0000000  0.0000000
 R(2)=  0.0000000 66.1404147  0.0000000  G(2)=  0.0000000  0.0151193  0.0000000
 R(3)=  0.0000000  0.0000000  4.6652109  G(3)=  0.0000000  0.0000000  0.2143526
 Unit cell volume ucvol=  8.7463795E+03 bohr^3
 Angles (23,13,12)=  9.00000000E+01  9.00000000E+01  9.00000000E+01 degrees

 Coarse grid specifications (used for wave-functions):

 getcut: wavevector=  0.0000  0.0000  0.0000  ngfft=  96 225  16
         ecut(hartree)=     14.000   => boxcut(ratio)=   2.01072

 Fine grid specifications (used for densities):

 getcut: wavevector=  0.0000  0.0000  0.0000  ngfft= 162 384  30
         ecut(hartree)=     40.000   => boxcut(ratio)=   2.00738

--- Pseudopotential description ------------------------------------------------
- pspini: atom type   1  psp file is ../C.LDA_PW-JTH.xml
- pspatm: opening atomic psp file    ../C.LDA_PW-JTH.xml
- pspatm : Reading pseudopotential header in XML form from ../C.LDA_PW-JTH.xml
 Pseudopotential format is: paw10
 basis_size (lnmax)=  4 (lmn_size=  8), orbitals=   0   0   1   1
 Spheres core radius: rc_sph= 1.50736703
 1 radial meshes are used:
  - mesh 1: r(i)=AA*[exp(BB*(i-1))-1], size=2001 , AA= 0.94549E-03 BB= 0.56729E-02
 Shapefunction is SIN type: shapef(r)=[sin(pi*r/rshp)/(pi*r/rshp)]**2
 Radius for shape functions =  1.30052589
 mmax= 2001
 Radial grid used for partial waves is grid 1
 Radial grid used for projectors is grid 1
 Radial grid used for (t)core density is grid 1
 Radial grid used for Vloc is grid 1
 Radial grid used for pseudo valence density is grid 1
 Mesh size for Vloc has been set to 1756 to avoid numerical noise.
 Compensation charge density is not taken into account in XC energy/potential
 pspatm: atomic psp has been read  and splines computed

- pspini: atom type   2  psp file is ../H.LDA_PW-JTH.xml
- pspatm: opening atomic psp file    ../H.LDA_PW-JTH.xml
- pspatm : Reading pseudopotential header in XML form from ../H.LDA_PW-JTH.xml
 Pseudopotential format is: paw10
 basis_size (lnmax)=  3 (lmn_size=  5), orbitals=   0   0   1
 Spheres core radius: rc_sph= 0.89889493
 1 radial meshes are used:
  - mesh 1: r(i)=AA*[exp(BB*(i-1))-1], size=1500 , AA= 0.63034E-02 BB= 0.63034E-02
 Shapefunction is SIN type: shapef(r)=[sin(pi*r/rshp)/(pi*r/rshp)]**2
 Radius for shape functions =  0.79672474
 mmax= 1500
 Radial grid used for partial waves is grid 1
 Radial grid used for projectors is grid 1
 Radial grid used for (t)core density is grid 1
 Radial grid used for Vloc is grid 1
 Radial grid used for pseudo valence density is grid 1
 Mesh size for Vloc has been set to 1280 to avoid numerical noise.
 Compensation charge density is not taken into account in XC energy/potential
 pspatm: atomic psp has been read  and splines computed

   4.65654704E+03                                ecore*ucvol(ha*bohr**3)
--------------------------------------------------------------------------------

_setup2: Arith. and geom. avg. npw (full set) are   21881.333   21880.837

================================================================================

     iter   Etot(hartree)     deltaE(h) residm    nres2    magn
 ETOT  1  -93.364145806244    -9.34E+01 5.17E-02 1.05E+02 0.008
 ETOT  2  -93.155592409609     2.09E-01 4.28E-03 1.20E+01 0.011
 ETOT  3  -93.076100605206     7.95E-02 4.78E-03 1.54E+00 0.023
 ETOT  4  -93.072420686847     3.68E-03 3.92E-03 6.35E-01 0.010
 ETOT  5  -93.084434881566    -1.20E-02 3.73E-03 3.97E-01 0.003
 ETOT  6  -93.095580644999    -1.11E-02 1.06E-03 1.26E-01 0.004
 ETOT  7  -93.110754373143    -1.52E-02 1.05E-03 7.86E-02 0.003
 ETOT  8  -93.132677109636    -2.19E-02 2.26E-03 3.38E-02 0.004
 ETOT  9  -93.142692657313    -1.00E-02 1.63E-03 1.60E-02 0.001
 ETOT 10  -93.146293286397    -3.60E-03 1.81E-03 9.22E-03 0.001
 ETOT 11  -93.148278267984    -1.98E-03 1.57E-03 5.37E-03 0.001
 ETOT 12  -93.149051174258    -7.73E-04 6.14E-04 3.65E-03 0.001
 ETOT 13  -93.150298035149    -1.25E-03 1.95E-04 1.75E-03 0.000
 ETOT 14  -93.151039937182    -7.42E-04 1.47E-04 1.08E-03 0.000
 ETOT 15  -93.152153035012    -1.11E-03 5.26E-04 4.20E-04 0.000
 ETOT 16  -93.152659245296    -5.06E-04 1.67E-03 2.22E-04 0.000
 ETOT 17  -93.153004980469    -3.46E-04 6.49E-04 1.01E-04 0.000
 ETOT 18  -93.153163536402    -1.59E-04 4.51E-04 4.95E-05 0.000
 ETOT 19  -93.153237497580    -7.40E-05 1.95E-03 3.48E-05 0.000
 ETOT 20  -93.153305542933    -6.80E-05 2.16E-03 1.30E-05 0.000
 ETOT 21  -93.153322627930    -1.71E-05 3.12E-03 8.05E-06 0.000
 ETOT 22  -93.153343246382    -2.06E-05 1.73E-04 3.23E-06 0.000
 ETOT 23  -93.153348140819    -4.89E-06 6.09E-05 1.92E-06 0.000
 ETOT 24  -93.153353087527    -4.95E-06 5.27E-05 7.56E-07 0.000
 ETOT 25  -93.153354542332    -1.45E-06 4.91E-05 4.11E-07 0.000
 ETOT 26  -93.153355683309    -1.14E-06 6.64E-05 1.56E-07 0.000
 ETOT 27  -93.153356116429    -4.33E-07 1.76E-04 6.33E-08 0.000
 ETOT 28  -93.153356283675    -1.67E-07 1.76E-04 2.97E-08 0.000

 At SCF step   28, etot is converged : 
  for the second time, diff in etot=  1.672E-07 < toldfe=  1.000E-06

 Cartesian components of stress tensor (hartree/bohr^3)
  sigma(1 1)=  1.14888154E-05  sigma(3 2)=  4.27519998E-10
  sigma(2 2)=  2.10206441E-05  sigma(3 1)=  4.95517599E-11
  sigma(3 3)=  2.20347843E-05  sigma(2 1)=  2.29162823E-11

 Integrated electronic and magnetization densities in atomic spheres:
 ---------------------------------------------------------------------
 Note: Diff(up-dn) is a rough approximation of local magnetic moment
 Atom    Radius    up_density   dn_density  Total(up+dn)  Diff(up-dn)
    1   0.89889     0.227063     0.228777      0.455840    -0.001714
    2   1.50737     1.405488     1.297934      2.703423     0.107554
    3   1.50737     1.356227     1.378923      2.735151    -0.022696
    4   1.50737     1.376896     1.347224      2.724119     0.029672
    5   1.50737     1.356465     1.367583      2.724048    -0.011118
    6   1.50737     1.368568     1.357630      2.726198     0.010938
    7   1.50737     1.362812     1.369182      2.731994    -0.006370
    8   1.50737     1.369074     1.363068      2.732142     0.006006
    9   1.50737     1.360197     1.365245      2.725442    -0.005047
   10   1.50737     1.365244     1.360196      2.725440     0.005048
   11   1.50737     1.363045     1.369052      2.732097    -0.006008
   12   1.50737     1.369425     1.363053      2.732478     0.006371
   13   1.50737     1.357633     1.368573      2.726206    -0.010940
   14   1.50737     1.367583     1.356462      2.724045     0.011121
   15   1.50737     1.347223     1.376902      2.724125    -0.029679
   16   1.50737     1.378921     1.356218      2.735139     0.022703
   17   1.50737     1.297252     1.404834      2.702086    -0.107583
   18   0.89889     0.228826     0.227112      0.455938     0.001713
 ---------------------------------------------------------------------
  Sum:             22.257942    22.257971     44.515912    -0.000029
 Total magnetization (from the atomic spheres):            -0.000029
 Total magnetization (exact up - dn):                      -0.000042

 PAW TEST:
 ==== Compensation charge inside spheres ============
 The following values must be close to each other ...
 Compensation charge over spherical meshes =      2.039191835208973
 Compensation charge over fine fft grid    =      2.039166850506998

 ==== Results concerning PAW augmentation regions ====

 Total pseudopotential strength Dij (hartree):
 Atom #  1 - Spin component 1
  -0.01698  -0.02564  -0.00035  -0.00000   0.00000
  -0.02564  -0.03852  -0.00056  -0.00000   0.00000
  -0.00035  -0.00056   0.00118   0.00000   0.00000
  -0.00000  -0.00000   0.00000   0.00123   0.00000
   0.00000   0.00000   0.00000   0.00000   0.00123
 Atom #  1 - Spin component 2
  -0.01700  -0.02567  -0.00034  -0.00000   0.00000
  -0.02567  -0.03858  -0.00054  -0.00000   0.00000
  -0.00034  -0.00054   0.00117   0.00000   0.00000
  -0.00000  -0.00000   0.00000   0.00121   0.00000
   0.00000   0.00000   0.00000   0.00000   0.00122
 Atom # 18 - Spin component 1
  -0.01700  -0.02567   0.00034  -0.00000  -0.00000
  -0.02567  -0.03858   0.00053  -0.00000  -0.00000
   0.00034   0.00053   0.00117  -0.00000   0.00000
  -0.00000  -0.00000  -0.00000   0.00121   0.00000
  -0.00000  -0.00000   0.00000   0.00000   0.00122
 Atom # 18 - Spin component 2
  -0.01698  -0.02564   0.00035  -0.00000  -0.00000
  -0.02564  -0.03852   0.00055  -0.00000  -0.00000
   0.00035   0.00055   0.00118  -0.00000   0.00000
  -0.00000  -0.00000  -0.00000   0.00123   0.00000
  -0.00000  -0.00000   0.00000   0.00000   0.00123


 Augmentation waves occupancies Rhoij:
 Atom #  1 - Spin component 1
   7.84011  -3.36001   1.01725  -0.00005  -0.00001
  -3.36001   1.44866  -0.44106   0.00002   0.00000
   1.01725  -0.44106   0.13615  -0.00001  -0.00000
  -0.00005   0.00002  -0.00001   0.02155   0.00000
  -0.00001   0.00000  -0.00000   0.00000   0.03393
 Atom #  1 - Spin component 2
   7.83679  -3.34756   1.00877  -0.00005  -0.00001
  -3.34756   1.43858  -0.43600   0.00002   0.00000
   1.00877  -0.43600   0.13404  -0.00001  -0.00000
  -0.00005   0.00002  -0.00001   0.02142  -0.00000
  -0.00001   0.00000  -0.00000  -0.00000   0.02192
 Atom # 18 - Spin component 1
   7.83682  -3.34758  -1.00835  -0.00005   0.00000
  -3.34758   1.43859   0.43583   0.00002  -0.00000
  -1.00835   0.43583   0.13393   0.00000  -0.00000
  -0.00005   0.00002   0.00000   0.02142   0.00000
   0.00000  -0.00000  -0.00000   0.00000   0.02192
 Atom # 18 - Spin component 2
   7.84014  -3.36003  -1.01683  -0.00004   0.00000
  -3.36003   1.44867   0.44088   0.00002  -0.00000
  -1.01683   0.44088   0.13604   0.00000  -0.00000
  -0.00004   0.00002   0.00000   0.02155   0.00000
   0.00000  -0.00000  -0.00000   0.00000   0.03393


================================================================================

 ----iterations are completed or convergence reached----

 Mean square residual over all n,k,spin=   1.7063E-07; max=  1.7634E-04
 reduced coordinates (array xred) for   18 atoms
       0.000000146165     -0.255277508520      0.496340015734
      -0.000000422237     -0.223927610257      0.496325943723
      -0.000000831085     -0.204437438523     -0.003674112921
      -0.000001659276     -0.163130644029     -0.003651489922
      -0.000002058113     -0.142895145877      0.496354089729
      -0.000002836950     -0.101950743051      0.496356646881
      -0.000003155445     -0.081626993411     -0.003643853291
      -0.000003454285     -0.040763632751     -0.003635962832
      -0.000003362716     -0.020420123027      0.496367875398
      -0.000002643042      0.020425043744      0.496368918893
      -0.000002089326      0.040768538506     -0.003634504499
      -0.000000861823      0.081631836443     -0.003641564013
      -0.000000257536      0.101955551877      0.496359123546
       0.000000759895      0.142899876626      0.496356936099
       0.000001150638      0.163135407620     -0.003648676187
       0.000001592188      0.204442279803     -0.003671948087
       0.000001634069      0.223932455954      0.496328008070
       0.000001505545      0.255282366877      0.496341298381
 rms dE/dt=  2.8092E-02; max dE/dt=  1.3600E-01; dE/dt below (all hartree)
    1      -0.000001321391     -0.035446128955     -0.000038299305
    2      -0.000002456159     -0.135016884313      0.000720818526
    3      -0.000005350042      0.005057186618      0.001003879978
    4      -0.000003796880      0.009302960397      0.000947385548
    5       0.000001262474      0.020142645235      0.000954998777
    6      -0.000006685795     -0.006505135911      0.000827274735
    7      -0.000004302219      0.002730890311      0.000802491818
    8      -0.000016344037      0.015489542273      0.000730765662
    9      -0.000016179145      0.030017036306      0.000903162879
   10      -0.000009915699     -0.029715174994      0.000901534541
   11      -0.000009339695     -0.015683227577      0.000729711235
   12       0.000000904661     -0.002992305065      0.000804001037
   13       0.000002966992      0.006812123014      0.000830978130
   14       0.000004784131     -0.020035097865      0.000953846266
   15       0.000007543135     -0.009663027690      0.000945133105
   16       0.000017013565     -0.005174451636      0.001003897486
   17       0.000014776480      0.136004325181      0.000720469900
   18      -0.000007305074      0.034707796174     -0.000038952049

 cartesian coordinates (angstrom) at end:
    1      0.00000219246877    -8.93471279820000     1.22532614140000
    2     -0.00000633355229    -7.83746635900000     1.22529140150000
    3     -0.00001246627989    -7.15531034830000    -0.00907036802590
    4     -0.00002488913803    -5.70957254100000    -0.00901451810060
    5     -0.00003087169370    -5.00133010570000     1.22536088620000
    6     -0.00004255424726    -3.56827600680000     1.22536719910000
    7     -0.00004733167752    -2.85694476940000    -0.00899566537360
    8     -0.00005181427931    -1.42672714630000    -0.00897618601250
    9     -0.00005044074150    -0.71470430595000     1.22539491920000
   10     -0.00003964562986     0.71487653105000     1.22539749530000
   11     -0.00003133988284     1.42689884770000    -0.00897258579200
   12     -0.00001292734200     2.85711427550000    -0.00899001377980
   13     -0.00000386303263     3.56844431570000     1.22537331330000
   14      0.00001139842583     5.00149568190000     1.22536791310000
   15      0.00001725956771     5.70973926670000    -0.00900757176780
   16      0.00002388282685     7.15547979310000    -0.00906502364940
   17      0.00002451103204     7.83763595840000     1.22529649780000
   18      0.00002258317563     8.93488284070000     1.22532930790000

 cartesian forces (hartree/bohr) at end:
    1     -0.00000001952010     0.00053595016674     0.00017139258369
    2      0.00000002051280     0.00204139514897     0.00000867371538
    3      0.00000012260460    -0.00007643358964    -0.00005200123821
    4      0.00000006781141    -0.00014062692440    -0.00003989151104
    5     -0.00000011067493    -0.00030451590054    -0.00004152342651
    6      0.00000016972793     0.00009838119781    -0.00001414544802
    7      0.00000008563898    -0.00004126150433    -0.00000883316575
    8      0.00000051045603    -0.00023416401377     0.00000654152114
    9      0.00000050463888    -0.00045381026349    -0.00003041226783
   10      0.00000028367403     0.00044930187475    -0.00003006322940
   11      0.00000026335350     0.00023714796718     0.00000676754014
   12     -0.00000009805184     0.00004526948291    -0.00000915667068
   13     -0.00000017080772    -0.00010296708517    -0.00001493928034
   14     -0.00000023491364     0.00030294541207    -0.00004127638267
   15     -0.00000033224712     0.00014612646514    -0.00003940869411
   16     -0.00000066634948     0.00007826211808    -0.00005200499098
   17     -0.00000058742851    -0.00205626905414     0.00000874844419
   18      0.00000019157516    -0.00052473149816     0.00017153250100
 frms,max,avg= 4.2626893E-04 2.0562691E-03   6.614E-08 -2.778E-08 -1.632E-04 h/b

 cartesian forces (eV/Angstrom) at end:
    1     -0.00000100376374     0.02755966334212     0.00881336026932
    2      0.00000105481047     0.10497275035047     0.00044602034048
    3      0.00000630458155    -0.00393037287647    -0.00267401095709
    4      0.00000348700273    -0.00723132659323    -0.00205130380161
    5     -0.00000569113323    -0.01565883588056    -0.00213522026185
    6      0.00000872776053     0.00505896417070    -0.00072738812199
    7      0.00000440373281    -0.00212175168316    -0.00045421960742
    8      0.00002624870216    -0.01204119671356     0.00033637851348
    9      0.00002594957251    -0.02333586004657    -0.00156386155815
   10      0.00001458710407     0.02310402939584    -0.00154591328222
   11      0.00001354218034     0.01219463775421     0.00034800087673
   12     -0.00000504202796     0.00232785021083    -0.00047085489835
   13     -0.00000878328526    -0.00529477996036    -0.00076820861793
   14     -0.00001207974410     0.01557807812311    -0.00212251675776
   15     -0.00001708483221     0.00751412432453    -0.00202647635891
   16     -0.00003426506511     0.00402439958151    -0.00267420393246
   17     -0.00003020678575    -0.10573759724229     0.00044986304985
   18      0.00000985119018    -0.02698277625712     0.00882055510587
 frms,max,avg= 2.1919628E-02 1.0573760E-01   3.401E-06 -1.428E-06 -8.391E-03 e/A
 length scales= 28.345891993000 66.140414651000  4.665210858100 bohr
              = 14.999999999849 35.000000000001  2.468723259373 angstroms
 prteigrs : about to open file zgnro_DS1_EIG
 Fermi (or HOMO) energy (hartree) =  -0.11327   Average Vxc (hartree)=  -0.07393
 Magnetization (Bohr magneton)=  4.24162354E-05
 Total spin up =  3.29999788E+01   Total spin down =  3.30000212E+01
 Eigenvalues (hartree) for nkpt=  15  k points, SPIN UP:
 kpt#   1, nband= 42, wtk=  0.06667, kpt=  0.0000  0.0000  0.0167 (reduced coord)
  -0.82337   -0.81337   -0.79823   -0.77779   -0.75207   -0.72136   -0.68660   -0.65214
  -0.57630   -0.53431   -0.48585   -0.43438   -0.38518   -0.38192   -0.37392   -0.35678
  -0.34379   -0.33528   -0.33384   -0.33099   -0.32238   -0.30558   -0.30540   -0.28655
  -0.28407   -0.27311   -0.26416   -0.24927   -0.24434   -0.23908   -0.22993   -0.22862
  -0.21016   -0.03486   -0.00071    0.00269    0.00547    0.00786    0.01825    0.02131
   0.02746    0.03035
      occupation numbers for kpt#   1
   1.00000    1.00000    1.00000    1.00000    1.00000    1.00000    1.00000    1.00000
   1.00000    1.00000    1.00000    1.00000    1.00000    1.00000    1.00000    1.00000
   1.00000    1.00000    1.00000    1.00000    1.00000    1.00000    1.00000    1.00000
   1.00000    1.00000    1.00000    1.00000    1.00000    1.00000    1.00000    1.00000
   1.00000    0.00000    0.00000    0.00000    0.00000    0.00000    0.00000    0.00000
   0.00000    0.00000
 prteigrs : prtvol=0 or 1, do not print more k-points.

 Eigenvalues (hartree) for nkpt=  15  k points, SPIN DOWN:
 kpt#   1, nband= 42, wtk=  0.06667, kpt=  0.0000  0.0000  0.0167 (reduced coord)
  -0.82337   -0.81337   -0.79823   -0.77779   -0.75207   -0.72136   -0.68660   -0.65214
  -0.57630   -0.53431   -0.48585   -0.43438   -0.38518   -0.38192   -0.37392   -0.35678
  -0.34379   -0.33528   -0.33384   -0.33099   -0.32238   -0.30558   -0.30540   -0.28655
  -0.28407   -0.27311   -0.26416   -0.24927   -0.24434   -0.23908   -0.22993   -0.22862
  -0.21016   -0.03486   -0.00071    0.00269    0.00547    0.00786    0.01825    0.02131
   0.02746    0.03035
      occupation numbers for kpt#   1
   1.00000    1.00000    1.00000    1.00000    1.00000    1.00000    1.00000    1.00000
   1.00000    1.00000    1.00000    1.00000    1.00000    1.00000    1.00000    1.00000
   1.00000    1.00000    1.00000    1.00000    1.00000    1.00000    1.00000    1.00000
   1.00000    1.00000    1.00000    1.00000    1.00000    1.00000    1.00000    1.00000
   1.00000    0.00000    0.00000    0.00000    0.00000    0.00000    0.00000    0.00000
   0.00000    0.00000
 prteigrs : prtvol=0 or 1, do not print more k-points.


--------------------------------------------------------------------------------
 Components of total free energy (in Hartree) :

    Kinetic energy  =  5.53079054099326E+01
    Hartree energy  =  5.69351023844384E+02
    XC energy       = -3.50907260942143E+01
    Ewald energy    =  4.96893947207394E+02
    PspCore energy  =  5.32397092867825E-01
    Loc. psp. energy= -1.19258821117071E+03
    Spherical terms =  1.24420255648016E+01
    >>>>> Internal E= -9.31516381455417E+01

    -kT*entropy     = -1.73940172214817E-03
    >>>>>>>>> Etotal= -9.31533775472639E+01

 "Double-counting" decomposition of free energy:
    Band energy     = -2.90907151002506E+01
    Ewald energy    =  4.96893947207394E+02
    PspCore energy  =  5.32397092867825E-01
    Dble-C XC-energy= -5.68219254613385E+02
    Spherical terms =  6.73200853142115E+00
    >>>>> Internal E= -9.31516168819527E+01

    -kT*entropy     = -1.73940172214817E-03
    >>>> Etotal (DC)= -9.31533562836748E+01

  >Total energy in eV           = -2.53483231429410E+03
  >Total DC energy in eV        = -2.53483173568242E+03
--------------------------------------------------------------------------------

 Cartesian components of stress tensor (hartree/bohr^3)
  sigma(1 1)=  1.14888154E-05  sigma(3 2)=  4.27519998E-10
  sigma(2 2)=  2.10206441E-05  sigma(3 1)=  4.95517599E-11
  sigma(3 3)=  2.20347843E-05  sigma(2 1)=  2.29162823E-11

-Cartesian components of stress tensor (GPa)         [Pressure= -5.3492E-01 GPa]
- sigma(1 1)=  3.38012562E-01  sigma(3 2)=  1.25780705E-05
- sigma(2 2)=  6.18448597E-01  sigma(3 1)=  1.45786286E-06
- sigma(3 3)=  6.48285628E-01  sigma(2 1)=  6.74220190E-07

================================================================================
== DATASET  2 ==================================================================
-   nproc =    1

 mkfilename : getden/=0, take file _DEN from output of DATASET   1.

 Exchange-correlation functional for the present dataset will be:
  GGA: Perdew-Burke-Ernzerhof functional - ixc=11
 Citation for XC functional:
  J.P.Perdew, K.Burke, M.Ernzerhof, PRL 77, 3865 (1996)

 Real(R)+Recip(G) space primitive vectors, cartesian coordinates (Bohr,Bohr^-1):
 R(1)= 28.3458920  0.0000000  0.0000000  G(1)=  0.0352785  0.0000000  0.0000000
 R(2)=  0.0000000 66.1404147  0.0000000  G(2)=  0.0000000  0.0151193  0.0000000
 R(3)=  0.0000000  0.0000000  4.6652109  G(3)=  0.0000000  0.0000000  0.2143526
 Unit cell volume ucvol=  8.7463795E+03 bohr^3
 Angles (23,13,12)=  9.00000000E+01  9.00000000E+01  9.00000000E+01 degrees

 Coarse grid specifications (used for wave-functions):

 getcut: wavevector=  0.0000  0.0000  0.0000  ngfft=  96 225  16
         ecut(hartree)=     14.000   => boxcut(ratio)=   2.01072

 Fine grid specifications (used for densities):

 getcut: wavevector=  0.0000  0.0000  0.0000  ngfft= 162 384  30
         ecut(hartree)=     40.000   => boxcut(ratio)=   2.00738
--------------------------------------------------------------------------------


================================================================================
 prteigrs : about to open file zgnro_DS2_EIG

 SPIN UP channel
 Non-SCF case, kpt    1 (  0.00000  0.00000  0.00000), residuals and eigenvalues=
  6.20E-13  7.55E-13  6.35E-13  6.08E-13  3.79E-13  4.78E-13  1.20E-13  6.33E-13
  6.93E-13  7.82E-13  4.80E-13  3.52E-13  3.94E-13  2.92E-13  2.76E-13  2.84E-13
  1.22E-13  8.86E-14  9.14E-13  4.53E-13  9.31E-13  2.28E-13  1.83E-13  2.93E-13
  2.25E-13  9.93E-13  9.10E-13  6.76E-13  9.09E-13  6.56E-13  3.84E-13  2.32E-13
  5.17E-13  6.40E-13  6.52E-13  9.99E-13  6.37E-13  5.73E-13  3.32E-10  2.32E-11
 -8.2356E-01 -8.1356E-01 -7.9842E-01 -7.7798E-01 -7.5226E-01 -7.2154E-01
 -6.8678E-01 -6.5231E-01 -5.7646E-01 -5.3445E-01 -4.8597E-01 -4.3447E-01
 -3.8541E-01 -3.8196E-01 -3.7414E-01 -3.5699E-01 -3.4299E-01 -3.3446E-01
 -3.3406E-01 -3.3095E-01 -3.2159E-01 -3.0580E-01 -3.0467E-01 -2.8511E-01
 -2.8465E-01 -2.7333E-01 -2.6334E-01 -2.4915E-01 -2.4359E-01 -2.3930E-01
 -2.2923E-01 -2.2834E-01 -2.1039E-01 -3.4830E-02 -7.0263E-04  2.4584E-03
  5.2339E-03  7.6199E-03  1.8007E-02  2.1065E-02
  prteigrs : nnsclo,ikpt=   80    1 max resid (incl. the buffer)=  3.32460E-10
 Non-SCF case, kpt    2 (  0.00000  0.00000  0.03333), residuals and eigenvalues=
  6.89E-13  4.62E-13  3.24E-13  8.54E-13  9.27E-13  5.83E-13  1.10E-13  5.31E-13
  2.94E-13  1.61E-13  3.34E-13  5.26E-13  1.38E-13  2.40E-13  4.88E-13  8.87E-13
  7.93E-13  5.35E-13  4.19E-13  7.54E-13  7.18E-13  3.02E-13  3.22E-13  6.79E-13
  8.01E-13  3.42E-13  3.38E-13  4.25E-13  4.96E-13  8.58E-13  4.15E-13  9.24E-13
  4.54E-13  6.26E-13  7.55E-13  7.52E-13  9.14E-13  5.92E-13  5.82E-11  8.18E-09
 -8.2283E-01 -8.1284E-01 -7.9771E-01 -7.7727E-01 -7.5156E-01 -7.2085E-01
 -6.8611E-01 -6.5167E-01 -5.7586E-01 -5.3390E-01 -4.8551E-01 -4.3415E-01
 -3.8454E-01 -3.8187E-01 -3.7329E-01 -3.5615E-01 -3.4622E-01 -3.3773E-01
 -3.3322E-01 -3.3123E-01 -3.2474E-01 -3.0761E-01 -3.0496E-01 -2.8932E-01
 -2.8399E-01 -2.7250E-01 -2.6661E-01 -2.4976E-01 -2.4659E-01 -2.3846E-01
 -2.3206E-01 -2.2950E-01 -2.0952E-01 -3.5009E-02 -7.7820E-04  3.4170E-03
  6.1601E-03  8.5785E-03  1.8964E-02  2.2023E-02
  prteigrs : nnsclo,ikpt=   80    2 max resid (incl. the buffer)=  8.18325E-09
 Non-SCF case, kpt    3 (  0.00000  0.00000  0.06667), residuals and eigenvalues=
  4.76E-13  7.76E-13  3.15E-13  3.85E-13  9.66E-13  4.44E-13  1.69E-13  8.52E-13
  2.86E-13  6.89E-13  6.74E-13  4.64E-13  1.75E-13  3.44E-13  1.46E-13  3.39E-13
  3.11E-13  4.65E-13  8.58E-13  6.71E-13  1.77E-13  5.08E-13  6.89E-13  1.01E-13
  9.62E-13  8.65E-13  7.85E-13  8.07E-13  6.62E-13  3.86E-13  5.25E-13  5.93E-13
  3.68E-13  7.68E-13  7.94E-13  5.25E-13  7.56E-13  7.98E-13  6.88E-11  1.59E-09
 -8.2066E-01 -8.1067E-01 -7.9555E-01 -7.7514E-01 -7.4945E-01 -7.1879E-01
 -6.8411E-01 -6.4975E-01 -5.7408E-01 -5.3228E-01 -4.8416E-01 -4.3325E-01
 -3.8196E-01 -3.8176E-01 -3.7072E-01 -3.5553E-01 -3.5359E-01 -3.4699E-01
 -3.3374E-01 -3.3271E-01 -3.3068E-01 -3.1566E-01 -3.0245E-01 -2.9849E-01
 -2.8534E-01 -2.7557E-01 -2.7000E-01 -2.5489E-01 -2.5239E-01 -2.3985E-01
 -2.3596E-01 -2.3308E-01 -2.0694E-01 -3.5612E-02 -1.1147E-03  6.2856E-03
  8.9292E-03  1.1453E-02  2.1830E-02  2.4897E-02
  prteigrs : nnsclo,ikpt=   80    3 max resid (incl. the buffer)=  1.59403E-09
 Non-SCF case, kpt    4 (  0.00000  0.00000  0.10000), residuals and eigenvalues=
  6.52E-13  5.27E-13  3.10E-13  4.01E-13  4.07E-13  5.51E-13  9.02E-13  2.98E-13
  6.31E-13  5.14E-13  8.78E-13  2.65E-13  5.57E-13  2.89E-13  8.96E-13  1.67E-13
  7.74E-13  2.82E-13  9.41E-13  3.28E-13  8.96E-13  6.74E-13  6.88E-13  7.45E-13
  2.33E-13  3.45E-13  3.39E-13  2.41E-13  2.78E-13  2.88E-13  9.09E-13  5.05E-13
  5.40E-13  4.90E-13  5.45E-13  7.95E-13  7.83E-13  8.27E-13  8.71E-10  1.56E-08
 -8.1706E-01 -8.0708E-01 -7.9198E-01 -7.7160E-01 -7.4596E-01 -7.1536E-01
 -6.8077E-01 -6.4654E-01 -5.7115E-01 -5.2962E-01 -4.8200E-01 -4.3195E-01
 -3.8212E-01 -3.7767E-01 -3.6993E-01 -3.6645E-01 -3.6128E-01 -3.4935E-01
 -3.4746E-01 -3.3822E-01 -3.2648E-01 -3.2560E-01 -3.1193E-01 -2.9829E-01
 -2.8934E-01 -2.8839E-01 -2.6635E-01 -2.6587E-01 -2.5975E-01 -2.4942E-01
 -2.3922E-01 -2.3178E-01 -2.0263E-01 -3.6874E-02 -2.0556E-03  1.1043E-02
  1.3514E-02  1.6236E-02  2.6598E-02  2.9678E-02
  prteigrs : nnsclo,ikpt=   80    4 max resid (incl. the buffer)=  1.55900E-08
 Non-SCF case, kpt    5 (  0.00000  0.00000  0.13333), residuals and eigenvalues=
  4.49E-13  8.78E-13  7.26E-13  5.73E-13  3.47E-13  2.19E-13  6.29E-13  6.51E-13
  2.34E-13  7.23E-13  2.15E-13  4.56E-13  7.66E-13  3.71E-13  5.36E-13  3.83E-13
  1.62E-13  1.84E-13  6.67E-13  7.17E-13  8.52E-13  4.65E-13  4.69E-13  1.38E-13
  2.37E-13  7.50E-13  3.89E-13  4.21E-13  3.04E-13  8.04E-13  2.22E-13  2.30E-13
  7.01E-13  9.82E-13  9.64E-13  9.05E-13  8.39E-13  8.51E-13  1.12E-08  4.21E-09
 -8.1201E-01 -8.0205E-01 -7.8698E-01 -7.6664E-01 -7.4107E-01 -7.1057E-01
 -6.7611E-01 -6.4206E-01 -5.6717E-01 -5.2607E-01 -4.7926E-01 -4.3070E-01
 -3.8878E-01 -3.8385E-01 -3.7922E-01 -3.7169E-01 -3.6375E-01 -3.6048E-01
 -3.5186E-01 -3.4343E-01 -3.3345E-01 -3.2786E-01 -3.2062E-01 -3.0224E-01
 -2.9892E-01 -2.9249E-01 -2.7673E-01 -2.7467E-01 -2.6011E-01 -2.5691E-01
 -2.4783E-01 -2.2599E-01 -1.9663E-01 -3.9103E-02 -4.0414E-03  1.7647E-02
  1.9869E-02  2.2924E-02  3.3264E-02  3.6358E-02
  prteigrs : nnsclo,ikpt=   80    5 max resid (incl. the buffer)=  1.12072E-08
 Non-SCF case, kpt    6 (  0.00000  0.00000  0.16667), residuals and eigenvalues=
  7.81E-13  3.62E-13  7.34E-13  4.31E-13  8.67E-13  2.37E-13  4.19E-13  9.43E-13
  7.26E-13  4.93E-13  5.58E-13  8.06E-13  3.40E-13  7.47E-13  4.97E-13  1.31E-13
  5.50E-13  1.31E-13  1.41E-13  2.31E-13  1.66E-13  2.45E-13  5.81E-13  3.12E-13
  5.15E-13  1.60E-13  3.84E-13  5.23E-13  5.60E-13  7.84E-13  5.23E-13  8.03E-13
  1.44E-13  2.36E-13  4.37E-13  7.16E-13  4.30E-13  7.54E-13  4.91E-06  2.56E-09
 -8.0553E-01 -7.9559E-01 -7.8056E-01 -7.6028E-01 -7.3480E-01 -7.0442E-01
 -6.7015E-01 -6.3632E-01 -5.6230E-01 -5.2184E-01 -4.7637E-01 -4.3072E-01
 -4.0934E-01 -3.9921E-01 -3.9314E-01 -3.7850E-01 -3.6925E-01 -3.6402E-01
 -3.5285E-01 -3.4519E-01 -3.4295E-01 -3.3586E-01 -3.1569E-01 -3.1315E-01
 -3.1234E-01 -2.9388E-01 -2.8513E-01 -2.8340E-01 -2.6445E-01 -2.5868E-01
 -2.5281E-01 -2.1863E-01 -1.8898E-01 -4.2731E-02 -7.6179E-03  2.6023E-02
  2.7927E-02  3.1519E-02  3.3927E-02  4.1822E-02
  prteigrs : nnsclo,ikpt=   80    6 max resid (incl. the buffer)=  4.90995E-06
 Non-SCF case, kpt    7 (  0.00000  0.00000  0.20000), residuals and eigenvalues=
  3.03E-13  2.19E-13  4.25E-13  3.30E-13  9.73E-13  9.14E-13  3.30E-13  7.81E-13
  8.10E-13  3.20E-13  9.71E-13  2.81E-13  5.51E-13  3.45E-13  3.01E-13  2.54E-13
  3.30E-13  4.16E-13  1.66E-13  9.25E-13  1.66E-13  7.50E-13  5.06E-13  5.24E-13
  3.42E-13  5.23E-13  8.37E-13  3.52E-13  3.17E-13  2.44E-13  1.87E-13  3.57E-13
  5.33E-13  6.89E-13  9.15E-13  7.02E-13  6.87E-13  5.67E-13  9.76E-13  8.23E-12
 -7.9764E-01 -7.8772E-01 -7.7274E-01 -7.5253E-01 -7.2716E-01 -6.9694E-01
 -6.6289E-01 -6.2933E-01 -5.5687E-01 -5.1749E-01 -4.7459E-01 -4.3542E-01
 -4.3125E-01 -4.1899E-01 -4.0983E-01 -3.9281E-01 -3.8489E-01 -3.6335E-01
 -3.5470E-01 -3.5247E-01 -3.4358E-01 -3.3621E-01 -3.2669E-01 -3.1818E-01
 -3.1423E-01 -3.0410E-01 -2.8883E-01 -2.7623E-01 -2.7327E-01 -2.7145E-01
 -2.4404E-01 -2.0979E-01 -1.7971E-01 -4.8221E-02 -1.3328E-02  2.8236E-02
  3.6047E-02  3.7594E-02  4.2036E-02  5.2283E-02
  prteigrs : nnsclo,ikpt=   80    7 max resid (incl. the buffer)=  8.22810E-12
 Non-SCF case, kpt    8 (  0.00000  0.00000  0.23333), residuals and eigenvalues=
  7.68E-13  7.59E-13  4.79E-13  6.67E-13  6.65E-13  2.26E-13  2.79E-13  7.37E-13
  3.03E-13  6.96E-13  6.80E-13  8.05E-13  2.82E-13  1.67E-13  5.05E-13  1.92E-13
  5.00E-13  5.80E-13  7.13E-13  3.08E-13  2.28E-13  7.36E-13  2.57E-13  4.87E-13
  3.61E-13  1.09E-13  2.80E-13  1.39E-13  2.54E-13  8.40E-13  2.86E-13  3.50E-13
  8.64E-13  6.63E-13  7.87E-13  6.99E-13  8.31E-13  5.83E-13  8.01E-10  4.77E-05
 -7.8833E-01 -7.7845E-01 -7.6353E-01 -7.4341E-01 -7.1816E-01 -6.8814E-01
 -6.5437E-01 -6.2110E-01 -5.5159E-01 -5.1435E-01 -4.7701E-01 -4.5274E-01
 -4.4876E-01 -4.3694E-01 -4.2557E-01 -4.1147E-01 -3.9441E-01 -3.8371E-01
 -3.6124E-01 -3.5264E-01 -3.4377E-01 -3.3806E-01 -3.3273E-01 -3.1926E-01
 -3.1595E-01 -2.9471E-01 -2.9354E-01 -2.8574E-01 -2.8346E-01 -2.6588E-01
 -2.3388E-01 -1.9959E-01 -1.6891E-01 -5.5994E-02 -2.1513E-02  1.8789E-02
  4.7530E-02  4.8747E-02  5.4509E-02  6.0553E-02
  prteigrs : nnsclo,ikpt=   80    8 max resid (incl. the buffer)=  4.77350E-05
 Non-SCF case, kpt    9 (  0.00000  0.00000  0.26667), residuals and eigenvalues=
  7.24E-13  3.61E-13  4.41E-13  3.78E-13  3.86E-13  7.56E-13  4.22E-13  8.73E-13
  4.00E-13  2.40E-13  1.87E-13  2.34E-13  2.47E-13  5.05E-13  4.68E-13  2.44E-13
  3.87E-13  2.68E-13  5.92E-13  2.22E-13  7.88E-13  6.39E-13  5.20E-13  4.19E-13
  5.91E-13  6.96E-13  3.97E-13  4.14E-13  6.18E-13  3.02E-13  2.48E-13  6.46E-13
  5.34E-13  7.76E-13  7.72E-13  5.54E-13  5.58E-13  9.39E-13  7.84E-13  4.70E-11
 -7.7763E-01 -7.6780E-01 -7.5294E-01 -7.3293E-01 -7.0785E-01 -6.7807E-01
 -6.4463E-01 -6.1166E-01 -5.4825E-01 -5.1582E-01 -4.8802E-01 -4.7166E-01
 -4.6547E-01 -4.5388E-01 -4.3922E-01 -4.2669E-01 -4.1079E-01 -3.9097E-01
 -3.8335E-01 -3.6091E-01 -3.5321E-01 -3.3127E-01 -3.2126E-01 -3.2033E-01
 -3.0376E-01 -3.0374E-01 -2.9897E-01 -2.9499E-01 -2.8159E-01 -2.5426E-01
 -2.2258E-01 -1.8829E-01 -1.5671E-01 -6.6247E-02 -3.2246E-02  6.0255E-03
  4.4174E-02  6.0224E-02  6.1221E-02  6.8971E-02
  prteigrs : nnsclo,ikpt=   80    9 max resid (incl. the buffer)=  4.70151E-11
 Non-SCF case, kpt   10 (  0.00000  0.00000  0.30000), residuals and eigenvalues=
  5.95E-13  3.66E-13  5.09E-13  7.08E-13  8.78E-13  6.41E-13  2.41E-13  5.71E-13
  3.09E-13  3.00E-13  3.50E-13  2.59E-13  3.37E-13  3.01E-13  4.60E-13  4.09E-13
  5.42E-13  1.36E-13  7.70E-13  4.17E-13  2.29E-13  8.22E-13  6.09E-13  4.82E-13
  8.56E-13  1.56E-13  6.85E-13  3.55E-13  2.95E-13  2.14E-13  7.51E-13  4.77E-13
  4.54E-13  6.87E-13  3.93E-13  3.58E-13  9.37E-13  9.12E-13  8.69E-13  9.22E-13
 -7.6557E-01 -7.5577E-01 -7.4100E-01 -7.2112E-01 -6.9624E-01 -6.6678E-01
 -6.3380E-01 -6.0109E-01 -5.5054E-01 -5.2617E-01 -5.0609E-01 -4.8514E-01
 -4.8431E-01 -4.6122E-01 -4.6064E-01 -4.3391E-01 -4.2686E-01 -4.0664E-01
 -3.8824E-01 -3.8361E-01 -3.5144E-01 -3.2355E-01 -3.1959E-01 -3.1727E-01
 -3.0787E-01 -3.0704E-01 -3.0647E-01 -2.9014E-01 -2.6838E-01 -2.4157E-01
 -2.1045E-01 -1.7638E-01 -1.4341E-01 -7.8707E-02 -4.4894E-02 -9.1159E-03
  2.6040E-02  5.9971E-02  7.3866E-02  7.4805E-02
 Non-SCF case, kpt   11 (  0.00000  0.00000  0.33333), residuals and eigenvalues=
  6.50E-13  4.74E-13  7.50E-13  3.68E-13  1.28E-13  3.91E-13  3.05E-13  3.93E-13
  1.88E-13  2.31E-13  2.21E-13  4.41E-13  4.83E-13  2.19E-13  6.36E-13  2.55E-13
  9.04E-13  6.93E-13  9.05E-13  2.39E-13  1.22E-13  6.76E-13  4.71E-13  9.38E-13
  5.69E-13  1.92E-13  3.60E-13  1.82E-13  3.34E-13  5.67E-13  5.14E-13  4.97E-13
  6.11E-13  6.92E-13  2.32E-13  8.11E-13  9.59E-13  7.46E-13  4.61E-07  1.65E-06
 -7.5216E-01 -7.4242E-01 -7.2774E-01 -7.0802E-01 -6.8342E-01 -6.5441E-01
 -6.2217E-01 -5.8962E-01 -5.6149E-01 -5.4360E-01 -5.2734E-01 -5.0768E-01
 -4.8760E-01 -4.8285E-01 -4.6019E-01 -4.5509E-01 -4.3065E-01 -4.2016E-01
 -4.0677E-01 -3.8250E-01 -3.4915E-01 -3.3698E-01 -3.2748E-01 -3.1994E-01
 -3.1572E-01 -3.0183E-01 -2.9125E-01 -2.7529E-01 -2.5413E-01 -2.2816E-01
 -1.9812E-01 -1.6497E-01 -1.2985E-01 -9.2402E-02 -5.8007E-02 -2.5348E-02
  6.4170E-03  3.7640E-02  6.7700E-02  8.9103E-02
  prteigrs : nnsclo,ikpt=   80   11 max resid (incl. the buffer)=  1.64506E-06
 Non-SCF case, kpt   12 (  0.00000  0.00000  0.36667), residuals and eigenvalues=
  8.99E-13  5.82E-13  2.14E-13  1.43E-13  6.67E-13  3.17E-13  6.72E-13  4.58E-13
  4.30E-13  2.95E-13  1.66E-13  3.68E-13  3.42E-13  2.48E-13  3.89E-13  3.11E-13
  3.78E-13  7.89E-13  1.84E-13  4.01E-13  3.42E-13  4.39E-13  4.87E-13  5.00E-13
  6.57E-13  2.51E-13  6.09E-13  2.30E-13  1.54E-13  2.89E-13  6.61E-13  5.92E-13
  2.33E-13  3.85E-13  7.54E-13  5.53E-13  7.52E-13  7.07E-13  1.78E-09  9.58E-07
 -7.3744E-01 -7.2777E-01 -7.1321E-01 -6.9371E-01 -6.6949E-01 -6.4128E-01
 -6.1109E-01 -5.7973E-01 -5.7700E-01 -5.6142E-01 -5.4926E-01 -5.3056E-01
 -5.0772E-01 -4.8124E-01 -4.7981E-01 -4.5314E-01 -4.4883E-01 -4.2892E-01
 -4.1209E-01 -3.7624E-01 -3.5495E-01 -3.4692E-01 -3.3801E-01 -3.2714E-01
 -3.2478E-01 -2.8508E-01 -2.7481E-01 -2.5944E-01 -2.3922E-01 -2.1471E-01
 -1.8686E-01 -1.5697E-01 -1.1917E-01 -1.0399E-01 -6.7979E-02 -4.0607E-02
 -1.3111E-02  1.5041E-02  4.3063E-02  6.8534E-02
  prteigrs : nnsclo,ikpt=   80   12 max resid (incl. the buffer)=  9.58093E-07
 Non-SCF case, kpt   13 (  0.00000  0.00000  0.40000), residuals and eigenvalues=
  5.50E-13  2.92E-13  8.68E-13  1.34E-13  8.58E-13  2.60E-13  1.41E-13  1.70E-13
  8.22E-13  2.79E-13  1.45E-13  7.95E-13  8.79E-13  4.58E-13  3.91E-13  1.46E-13
  4.27E-13  2.07E-13  1.54E-13  3.58E-13  7.46E-13  3.41E-13  5.70E-13  8.30E-13
  5.09E-13  5.72E-13  2.82E-13  4.91E-13  6.53E-13  4.21E-13  2.28E-13  4.27E-13
  4.14E-13  2.03E-13  7.28E-13  7.52E-13  9.24E-13  8.62E-13  5.67E-10  3.78E-07
 -7.2146E-01 -7.1186E-01 -6.9748E-01 -6.7831E-01 -6.5481E-01 -6.2877E-01
 -6.1010E-01 -5.8845E-01 -5.8534E-01 -5.6898E-01 -5.5974E-01 -5.5190E-01
 -5.3025E-01 -5.0370E-01 -4.7559E-01 -4.6886E-01 -4.5063E-01 -4.3772E-01
 -4.0241E-01 -3.7296E-01 -3.6951E-01 -3.5237E-01 -3.4558E-01 -3.3437E-01
 -3.3134E-01 -2.6714E-01 -2.5734E-01 -2.4290E-01 -2.2428E-01 -2.0245E-01
 -1.7925E-01 -1.5831E-01 -1.1917E-01 -1.0595E-01 -6.7668E-02 -5.1467E-02
 -3.0593E-02 -6.5195E-03  1.8982E-02  4.2896E-02
  prteigrs : nnsclo,ikpt=   80   13 max resid (incl. the buffer)=  3.78452E-07
 Non-SCF case, kpt   14 (  0.00000  0.00000  0.43333), residuals and eigenvalues=
  1.47E-13  9.35E-13  8.12E-13  4.63E-13  2.79E-13  9.45E-13  7.57E-13  6.10E-13
  5.21E-13  4.61E-13  3.11E-13  2.04E-13  2.20E-13  2.58E-13  5.60E-13  5.86E-13
  5.63E-13  1.30E-13  1.59E-13  3.72E-13  5.34E-13  8.66E-13  5.25E-13  8.95E-13
  2.09E-13  9.03E-13  2.09E-13  7.81E-13  6.07E-13  7.56E-13  2.38E-13  6.03E-13
  3.06E-13  7.42E-13  6.87E-13  7.82E-13  6.06E-13  6.62E-13  2.76E-10  1.17E-06
 -7.0427E-01 -6.9479E-01 -6.8067E-01 -6.6213E-01 -6.4060E-01 -6.2669E-01
 -6.2501E-01 -5.9761E-01 -5.9369E-01 -5.7382E-01 -5.6966E-01 -5.5151E-01
 -5.4394E-01 -5.2523E-01 -4.9668E-01 -4.7128E-01 -4.5592E-01 -4.2527E-01
 -3.9205E-01 -3.9069E-01 -3.6746E-01 -3.6261E-01 -3.4884E-01 -3.4014E-01
 -3.3609E-01 -2.4819E-01 -2.3918E-01 -2.2630E-01 -2.1050E-01 -1.9371E-01
 -1.7920E-01 -1.7082E-01 -1.2251E-01 -1.0542E-01 -5.5214E-02 -5.3175E-02
 -4.2959E-02 -2.5366E-02 -3.5809E-03  1.8184E-02
  prteigrs : nnsclo,ikpt=   80   14 max resid (incl. the buffer)=  1.16958E-06
 Non-SCF case, kpt   15 (  0.00000  0.00000  0.46667), residuals and eigenvalues=
  6.26E-13  8.63E-13  6.17E-13  3.50E-13  2.45E-13  2.20E-13  9.09E-13  1.83E-13
  1.78E-13  2.29E-13  4.14E-13  4.59E-13  2.89E-13  4.54E-13  5.13E-13  1.52E-13
  1.98E-13  5.74E-13  2.98E-13  5.07E-13  2.74E-13  2.98E-13  4.76E-13  4.11E-13
  1.69E-13  2.81E-13  9.90E-13  6.88E-13  3.28E-13  7.56E-13  7.72E-13  4.13E-13
  2.90E-13  9.94E-13  7.49E-13  8.37E-13  6.93E-13  8.40E-13  3.14E-11  1.05E-07
 -6.8596E-01 -6.7669E-01 -6.6310E-01 -6.4671E-01 -6.4628E-01 -6.3903E-01
 -6.3403E-01 -6.0469E-01 -5.9782E-01 -5.8056E-01 -5.7273E-01 -5.5357E-01
 -5.4598E-01 -5.2735E-01 -5.1690E-01 -4.9104E-01 -4.4114E-01 -4.1170E-01
 -4.0831E-01 -3.8250E-01 -3.8087E-01 -3.5860E-01 -3.5622E-01 -3.4161E-01
 -3.3996E-01 -2.2851E-01 -2.2084E-01 -2.1071E-01 -2.0004E-01 -1.9183E-01
 -1.8869E-01 -1.8817E-01 -1.2477E-01 -1.0541E-01 -4.7444E-02 -4.5471E-02
 -3.7729E-02 -3.5895E-02 -2.3075E-02 -4.9330E-03
  prteigrs : nnsclo,ikpt=   80   15 max resid (incl. the buffer)=  1.04871E-07
 Non-SCF case, kpt   16 (  0.00000  0.00000  0.50000), residuals and eigenvalues=
  5.22E-13  2.76E-13  6.35E-13  2.40E-13  5.81E-13  5.78E-13  2.98E-13  3.26E-13
  2.00E-13  2.72E-13  7.40E-13  8.65E-13  3.20E-13  1.85E-13  4.84E-13  9.55E-13
  1.75E-13  6.52E-13  2.97E-13  5.67E-13  1.82E-13  6.26E-13  1.61E-13  4.91E-13
  1.97E-13  6.75E-13  5.77E-13  6.80E-13  4.66E-13  4.13E-13  6.09E-13  4.60E-13
  2.99E-13  6.41E-13  9.55E-13  7.45E-13  7.38E-13  8.78E-13  2.87E-10  1.14E-06
 -6.6671E-01 -6.6666E-01 -6.5800E-01 -6.5766E-01 -6.4625E-01 -6.4515E-01
 -6.3704E-01 -6.0731E-01 -5.9849E-01 -5.8527E-01 -5.6862E-01 -5.6173E-01
 -5.3831E-01 -5.3395E-01 -5.1078E-01 -5.0885E-01 -4.2574E-01 -4.2458E-01
 -3.9796E-01 -3.9671E-01 -3.7013E-01 -3.6916E-01 -3.5238E-01 -3.4475E-01
 -3.4001E-01 -2.0853E-01 -2.0847E-01 -2.0335E-01 -2.0321E-01 -1.9867E-01
 -1.9763E-01 -1.9571E-01 -1.2557E-01 -1.0547E-01 -4.6022E-02 -4.3450E-02
 -3.5575E-02 -2.8499E-02 -2.3015E-02 -1.4587E-02
  prteigrs : nnsclo,ikpt=   80   16 max resid (incl. the buffer)=  1.13544E-06

 SPIN DOWN channel
 Non-SCF case, kpt    1 (  0.00000  0.00000  0.00000), residuals and eigenvalues=
  6.43E-13  8.16E-13  6.53E-13  5.58E-13  4.08E-13  5.08E-13  1.21E-13  6.75E-13
  6.87E-13  8.02E-13  4.87E-13  2.29E-13  7.61E-13  2.94E-13  2.81E-13  1.57E-13
  9.04E-14  9.55E-14  2.95E-13  4.63E-13  9.58E-13  1.41E-13  1.73E-13  2.46E-13
  1.99E-13  6.64E-13  7.61E-13  6.65E-13  7.16E-13  9.02E-13  2.99E-13  1.87E-13
  4.18E-13  5.87E-13  6.42E-13  9.27E-13  6.00E-13  6.47E-13  2.16E-10  1.18E-10
 -8.2356E-01 -8.1356E-01 -7.9842E-01 -7.7798E-01 -7.5226E-01 -7.2154E-01
 -6.8678E-01 -6.5231E-01 -5.7646E-01 -5.3445E-01 -4.8597E-01 -4.3447E-01
 -3.8541E-01 -3.8196E-01 -3.7415E-01 -3.5700E-01 -3.4299E-01 -3.3446E-01
 -3.3406E-01 -3.3095E-01 -3.2159E-01 -3.0580E-01 -3.0467E-01 -2.8511E-01
 -2.8465E-01 -2.7333E-01 -2.6334E-01 -2.4915E-01 -2.4359E-01 -2.3930E-01
 -2.2923E-01 -2.2834E-01 -2.1039E-01 -3.4830E-02 -7.0307E-04  2.4579E-03
  5.2342E-03  7.6199E-03  1.8007E-02  2.1065E-02
  prteigrs : nnsclo,ikpt=   80    1 max resid (incl. the buffer)=  2.15706E-10
 Non-SCF case, kpt    2 (  0.00000  0.00000  0.03333), residuals and eigenvalues=
  6.74E-13  4.56E-13  3.13E-13  8.28E-13  9.79E-13  5.54E-13  1.16E-13  5.20E-13
  2.99E-13  1.58E-13  3.02E-13  5.27E-13  1.29E-13  2.31E-13  5.14E-13  8.66E-13
  9.24E-13  5.83E-13  4.51E-13  7.01E-13  7.84E-13  2.88E-13  3.65E-13  6.26E-13
  7.37E-13  3.89E-13  3.26E-13  3.87E-13  5.35E-13  8.93E-13  3.99E-13  8.12E-13
  4.61E-13  4.57E-13  6.40E-13  7.40E-13  7.27E-13  9.00E-13  1.14E-10  4.31E-09
 -8.2283E-01 -8.1284E-01 -7.9771E-01 -7.7727E-01 -7.5156E-01 -7.2085E-01
 -6.8611E-01 -6.5167E-01 -5.7586E-01 -5.3390E-01 -4.8551E-01 -4.3415E-01
 -3.8454E-01 -3.8187E-01 -3.7329E-01 -3.5615E-01 -3.4622E-01 -3.3773E-01
 -3.3322E-01 -3.3123E-01 -3.2474E-01 -3.0761E-01 -3.0496E-01 -2.8932E-01
 -2.8399E-01 -2.7250E-01 -2.6661E-01 -2.4976E-01 -2.4659E-01 -2.3846E-01
 -2.3206E-01 -2.2950E-01 -2.0952E-01 -3.5010E-02 -7.7864E-04  3.4164E-03
  6.1604E-03  8.5785E-03  1.8964E-02  2.2023E-02
  prteigrs : nnsclo,ikpt=   80    2 max resid (incl. the buffer)=  4.31350E-09
 Non-SCF case, kpt    3 (  0.00000  0.00000  0.06667), residuals and eigenvalues=
  4.64E-13  7.77E-13  2.81E-13  3.91E-13  9.17E-13  4.81E-13  1.68E-13  8.02E-13
  2.80E-13  7.19E-13  6.88E-13  4.18E-13  1.73E-13  3.57E-13  1.35E-13  3.34E-13
  3.04E-13  4.42E-13  8.68E-13  6.68E-13  1.30E-13  5.30E-13  7.00E-13  9.37E-13
  9.58E-13  9.11E-13  6.79E-13  8.21E-13  6.47E-13  4.17E-13  5.02E-13  6.20E-13
  3.52E-13  8.28E-13  7.82E-13  4.77E-13  9.28E-13  7.25E-13  6.17E-11  1.59E-09
 -8.2066E-01 -8.1067E-01 -7.9555E-01 -7.7514E-01 -7.4946E-01 -7.1879E-01
 -6.8411E-01 -6.4975E-01 -5.7408E-01 -5.3228E-01 -4.8416E-01 -4.3325E-01
 -3.8196E-01 -3.8176E-01 -3.7072E-01 -3.5553E-01 -3.5359E-01 -3.4699E-01
 -3.3374E-01 -3.3271E-01 -3.3068E-01 -3.1566E-01 -3.0245E-01 -2.9849E-01
 -2.8534E-01 -2.7557E-01 -2.7000E-01 -2.5489E-01 -2.5239E-01 -2.3985E-01
 -2.3596E-01 -2.3308E-01 -2.0694E-01 -3.5613E-02 -1.1151E-03  6.2851E-03
  8.9296E-03  1.1453E-02  2.1830E-02  2.4897E-02
  prteigrs : nnsclo,ikpt=   80    3 max resid (incl. the buffer)=  1.58540E-09
 Non-SCF case, kpt    4 (  0.00000  0.00000  0.10000), residuals and eigenvalues=
  6.49E-13  5.28E-13  3.15E-13  3.86E-13  3.98E-13  5.37E-13  9.48E-13  3.02E-13
  5.86E-13  4.50E-13  9.50E-13  2.36E-13  5.36E-13  2.78E-13  8.68E-13  2.15E-13
  8.29E-13  3.64E-13  9.38E-13  2.97E-13  9.06E-13  7.43E-13  6.64E-13  6.99E-13
  2.13E-13  4.28E-13  3.83E-13  3.28E-13  2.92E-13  2.97E-13  9.30E-13  4.62E-13
  9.99E-13  3.54E-13  8.36E-13  9.38E-13  8.10E-13  9.43E-13  3.71E-10  1.12E-08
 -8.1706E-01 -8.0708E-01 -7.9198E-01 -7.7160E-01 -7.4596E-01 -7.1536E-01
 -6.8077E-01 -6.4654E-01 -5.7115E-01 -5.2962E-01 -4.8200E-01 -4.3195E-01
 -3.8212E-01 -3.7767E-01 -3.6993E-01 -3.6645E-01 -3.6128E-01 -3.4935E-01
 -3.4746E-01 -3.3822E-01 -3.2648E-01 -3.2560E-01 -3.1193E-01 -2.9829E-01
 -2.8934E-01 -2.8839E-01 -2.6635E-01 -2.6587E-01 -2.5975E-01 -2.4942E-01
 -2.3922E-01 -2.3178E-01 -2.0263E-01 -3.6875E-02 -2.0561E-03  1.1042E-02
  1.3515E-02  1.6236E-02  2.6598E-02  2.9678E-02
  prteigrs : nnsclo,ikpt=   80    4 max resid (incl. the buffer)=  1.12136E-08
 Non-SCF case, kpt    5 (  0.00000  0.00000  0.13333), residuals and eigenvalues=
  4.41E-13  8.41E-13  6.82E-13  5.72E-13  3.62E-13  2.14E-13  5.98E-13  6.63E-13
  2.04E-13  7.56E-13  2.06E-13  4.56E-13  8.18E-13  4.30E-13  4.85E-13  3.38E-13
  1.71E-13  1.71E-13  6.43E-13  7.65E-13  8.68E-13  9.46E-13  4.35E-13  1.69E-13
  2.01E-13  8.05E-13  3.71E-13  4.51E-13  3.26E-13  7.85E-13  2.03E-13  2.37E-13
  6.64E-13  3.43E-13  7.21E-13  7.57E-13  7.83E-13  9.13E-13  9.39E-09  3.96E-09
 -8.1201E-01 -8.0205E-01 -7.8698E-01 -7.6664E-01 -7.4107E-01 -7.1057E-01
 -6.7611E-01 -6.4206E-01 -5.6717E-01 -5.2607E-01 -4.7926E-01 -4.3070E-01
 -3.8878E-01 -3.8385E-01 -3.7922E-01 -3.7169E-01 -3.6375E-01 -3.6048E-01
 -3.5186E-01 -3.4343E-01 -3.3345E-01 -3.2786E-01 -3.2062E-01 -3.0224E-01
 -2.9892E-01 -2.9249E-01 -2.7673E-01 -2.7467E-01 -2.6012E-01 -2.5691E-01
 -2.4783E-01 -2.2599E-01 -1.9663E-01 -3.9104E-02 -4.0419E-03  1.7646E-02
  1.9870E-02  2.2924E-02  3.3263E-02  3.6358E-02
  prteigrs : nnsclo,ikpt=   80    5 max resid (incl. the buffer)=  9.39441E-09
 Non-SCF case, kpt    6 (  0.00000  0.00000  0.16667), residuals and eigenvalues=
  7.68E-13  3.67E-13  6.99E-13  4.02E-13  8.63E-13  2.40E-13  4.05E-13  9.47E-13
  7.48E-13  4.69E-13  5.60E-13  7.91E-13  3.63E-13  6.59E-13  5.16E-13  8.98E-13
  4.74E-13  8.51E-13  1.37E-13  2.30E-13  1.74E-13  1.97E-13  5.86E-13  2.99E-13
  5.25E-13  1.62E-13  9.19E-13  5.74E-13  5.47E-13  7.21E-13  6.30E-13  7.87E-13
  8.59E-13  8.07E-13  4.47E-13  9.06E-13  4.72E-13  5.88E-13  4.42E-06  6.06E-09
 -8.0553E-01 -7.9559E-01 -7.8056E-01 -7.6028E-01 -7.3480E-01 -7.0442E-01
 -6.7015E-01 -6.3632E-01 -5.6230E-01 -5.2184E-01 -4.7637E-01 -4.3072E-01
 -4.0934E-01 -3.9921E-01 -3.9314E-01 -3.7850E-01 -3.6925E-01 -3.6402E-01
 -3.5285E-01 -3.4519E-01 -3.4295E-01 -3.3586E-01 -3.1570E-01 -3.1315E-01
 -3.1234E-01 -2.9388E-01 -2.8513E-01 -2.8340E-01 -2.6445E-01 -2.5868E-01
 -2.5281E-01 -2.1863E-01 -1.8898E-01 -4.2732E-02 -7.6184E-03  2.6022E-02
  2.7928E-02  3.1519E-02  3.3917E-02  4.1822E-02
  prteigrs : nnsclo,ikpt=   80    6 max resid (incl. the buffer)=  4.42427E-06
 Non-SCF case, kpt    7 (  0.00000  0.00000  0.20000), residuals and eigenvalues=
  3.04E-13  2.16E-13  4.22E-13  3.42E-13  9.27E-13  9.71E-13  3.25E-13  7.61E-13
  7.98E-13  3.41E-13  9.86E-13  2.78E-13  5.01E-13  3.26E-13  2.96E-13  2.63E-13
  3.35E-13  3.57E-13  1.72E-13  8.46E-13  1.76E-13  7.14E-13  4.56E-13  5.01E-13
  3.00E-13  5.43E-13  7.79E-13  5.45E-13  2.45E-13  3.02E-13  1.72E-13  4.06E-13
  3.90E-13  7.90E-13  7.46E-13  9.83E-13  9.70E-13  6.76E-13  7.95E-13  1.57E-11
 -7.9764E-01 -7.8772E-01 -7.7274E-01 -7.5253E-01 -7.2716E-01 -6.9694E-01
 -6.6289E-01 -6.2933E-01 -5.5687E-01 -5.1749E-01 -4.7459E-01 -4.3542E-01
 -4.3125E-01 -4.1899E-01 -4.0983E-01 -3.9281E-01 -3.8489E-01 -3.6335E-01
 -3.5470E-01 -3.5247E-01 -3.4358E-01 -3.3621E-01 -3.2669E-01 -3.1818E-01
 -3.1423E-01 -3.0410E-01 -2.8883E-01 -2.7623E-01 -2.7328E-01 -2.7145E-01
 -2.4404E-01 -2.0979E-01 -1.7971E-01 -4.8222E-02 -1.3328E-02  2.8235E-02
  3.6045E-02  3.7595E-02  4.2036E-02  5.2283E-02
  prteigrs : nnsclo,ikpt=   80    7 max resid (incl. the buffer)=  1.57096E-11
 Non-SCF case, kpt    8 (  0.00000  0.00000  0.23333), residuals and eigenvalues=
  7.44E-13  7.95E-13  4.60E-13  6.73E-13  6.94E-13  2.09E-13  2.73E-13  7.57E-13
  3.08E-13  6.81E-13  6.78E-13  8.15E-13  2.66E-13  1.61E-13  4.67E-13  1.86E-13
  4.46E-13  5.73E-13  7.27E-13  2.91E-13  2.23E-13  6.18E-13  2.00E-13  5.12E-13
  4.08E-13  9.41E-13  2.77E-13  1.42E-13  2.63E-13  6.80E-13  3.03E-13  3.70E-13
  7.41E-13  5.69E-13  9.25E-13  6.15E-13  5.41E-13  9.48E-13  5.88E-10  4.59E-05
 -7.8833E-01 -7.7845E-01 -7.6353E-01 -7.4341E-01 -7.1816E-01 -6.8814E-01
 -6.5437E-01 -6.2110E-01 -5.5159E-01 -5.1435E-01 -4.7701E-01 -4.5274E-01
 -4.4876E-01 -4.3694E-01 -4.2557E-01 -4.1147E-01 -3.9441E-01 -3.8371E-01
 -3.6124E-01 -3.5264E-01 -3.4377E-01 -3.3806E-01 -3.3273E-01 -3.1926E-01
 -3.1595E-01 -2.9471E-01 -2.9354E-01 -2.8574E-01 -2.8346E-01 -2.6588E-01
 -2.3388E-01 -1.9959E-01 -1.6891E-01 -5.5995E-02 -2.1513E-02  1.8789E-02
  4.7528E-02  4.8749E-02  5.4509E-02  6.0460E-02
  prteigrs : nnsclo,ikpt=   80    8 max resid (incl. the buffer)=  4.59436E-05
 Non-SCF case, kpt    9 (  0.00000  0.00000  0.26667), residuals and eigenvalues=
  7.48E-13  3.66E-13  4.56E-13  3.70E-13  3.60E-13  8.23E-13  3.88E-13  8.90E-13
  3.82E-13  2.58E-13  1.88E-13  2.38E-13  2.49E-13  4.76E-13  4.27E-13  2.38E-13
  3.61E-13  2.27E-13  6.55E-13  2.19E-13  6.82E-13  6.90E-13  4.56E-13  3.52E-13
[...]
                       1.000000  1.000000  1.000000  1.000000  1.000000  1.000000
                       1.000000  1.000000  1.000000  1.000000  1.000000  1.000000
                       1.000000  1.000000  1.000000  1.000000  1.000000  1.000000
                       1.000000  1.000000  1.000000  1.000000  1.000000  1.000000
                       1.000000  1.000000  1.000000  0.000000  0.000000  0.000000
                       0.000000  0.000000  0.000000  0.000000  0.000000  0.000000
                       1.000000  1.000000  1.000000  1.000000  1.000000  1.000000
                       1.000000  1.000000  1.000000  1.000000  1.000000  1.000000
                       1.000000  1.000000  1.000000  1.000000  1.000000  1.000000
                       1.000000  1.000000  1.000000  1.000000  1.000000  1.000000
                       1.000000  1.000000  1.000000  1.000000  1.000000  1.000000
                       1.000000  1.000000  1.000000  0.000000  0.000000  0.000000
                       0.000000  0.000000  0.000000  0.000000  0.000000  0.000000
                       1.000000  1.000000  1.000000  1.000000  1.000000  1.000000
                       1.000000  1.000000  1.000000  1.000000  1.000000  1.000000
                       1.000000  1.000000  1.000000  1.000000  1.000000  1.000000
                       1.000000  1.000000  1.000000  1.000000  1.000000  1.000000
                       1.000000  1.000000  1.000000  1.000000  1.000000  1.000000
                       1.000000  1.000000  1.000000  0.000000  0.000000  0.000000
                       0.000000  0.000000  0.000000  0.000000  0.000000  0.000000
                       1.000000  1.000000  1.000000  1.000000  1.000000  1.000000
                       1.000000  1.000000  1.000000  1.000000  1.000000  1.000000
                       1.000000  1.000000  1.000000  1.000000  1.000000  1.000000
                       1.000000  1.000000  1.000000  1.000000  1.000000  1.000000
                       1.000000  1.000000  1.000000  1.000000  1.000000  1.000000
                       1.000000  1.000000  1.000000  0.000000  0.000000  0.000000
                       0.000000  0.000000  0.000000  0.000000  0.000000  0.000000
                       1.000000  1.000000  1.000000  1.000000  1.000000  1.000000
                       1.000000  1.000000  1.000000  1.000000  1.000000  1.000000
                       1.000000  1.000000  1.000000  1.000000  1.000000  1.000000
                       1.000000  1.000000  1.000000  1.000000  1.000000  1.000000
                       1.000000  1.000000  1.000000  1.000000  1.000000  1.000000
                       1.000000  1.000000  0.999505  0.000043  0.000000  0.000000
                       0.000000  0.000000  0.000000  0.000000  0.000000  0.000000
                       1.000000  1.000000  1.000000  1.000000  1.000000  1.000000
                       1.000000  1.000000  1.000000  1.000000  1.000000  1.000000
                       1.000000  1.000000  1.000000  1.000000  1.000000  1.000000
                       1.000000  1.000000  1.000000  1.000000  1.000000  1.000000
                       1.000000  1.000000  1.000000  1.000000  1.000000  1.000000
                       1.000000  1.000000  0.930334  0.020918  0.000000  0.000000
                       0.000000  0.000000  0.000000  0.000000  0.000000  0.000000
                       1.000000  1.000000  1.000000  1.000000  1.000000  1.000000
                       1.000000  1.000000  1.000000  1.000000  1.000000  1.000000
                       1.000000  1.000000  1.000000  1.000000  1.000000  1.000000
                       1.000000  1.000000  1.000000  1.000000  1.000000  1.000000
                       1.000000  1.000000  1.000000  1.000000  1.000000  1.000000
                       1.000000  1.000000  0.740632  0.155870  0.000000  0.000000
                       0.000000  0.000000  0.000000  0.000000  0.000000  0.000000
                       1.000000  1.000000  1.000000  1.000000  1.000000  1.000000
                       1.000000  1.000000  1.000000  1.000000  1.000000  1.000000
                       1.000000  1.000000  1.000000  1.000000  1.000000  1.000000
                       1.000000  1.000000  1.000000  1.000000  1.000000  1.000000
                       1.000000  1.000000  1.000000  1.000000  1.000000  1.000000
                       1.000000  1.000000  0.860671  0.138037  0.000000  0.000000
                       0.000000  0.000000  0.000000  0.000000  0.000000  0.000000
                       1.000000  1.000000  1.000000  1.000000  1.000000  1.000000
                       1.000000  1.000000  1.000000  1.000000  1.000000  1.000000
                       1.000000  1.000000  1.000000  1.000000  1.000000  1.000000
                       1.000000  1.000000  1.000000  1.000000  1.000000  1.000000
                       1.000000  1.000000  1.000000  1.000000  1.000000  1.000000
                       1.000000  1.000000  0.931863  0.131935  0.000000  0.000000
                       0.000000  0.000000  0.000000  0.000000  0.000000  0.000000
                       1.000000  1.000000  1.000000  1.000000  1.000000  1.000000
                       1.000000  1.000000  1.000000  1.000000  1.000000  1.000000
                       1.000000  1.000000  1.000000  1.000000  1.000000  1.000000
                       1.000000  1.000000  1.000000  1.000000  1.000000  1.000000
                       1.000000  1.000000  1.000000  1.000000  1.000000  1.000000
                       1.000000  1.000000  0.956492  0.134020  0.000000  0.000000
                       0.000000  0.000000  0.000000  0.000000  0.000000  0.000000
           occopt           7
        pawecutdg      4.00000000E+01 Hartree
          pawovlp      1.0000000000E+01
           shiftk1     0.00000000E+00  0.00000000E+00  5.00000000E-01
           shiftk2     5.00000000E-01  5.00000000E-01  5.00000000E-01
          spgroup           1
           spinat      0.0000000000E+00  0.0000000000E+00  1.0000000000E+00
                       0.0000000000E+00  0.0000000000E+00  0.0000000000E+00
                       0.0000000000E+00  0.0000000000E+00  0.0000000000E+00
                       0.0000000000E+00  0.0000000000E+00  0.0000000000E+00
                       0.0000000000E+00  0.0000000000E+00  0.0000000000E+00
                       0.0000000000E+00  0.0000000000E+00  0.0000000000E+00
                       0.0000000000E+00  0.0000000000E+00  0.0000000000E+00
                       0.0000000000E+00  0.0000000000E+00  0.0000000000E+00
                       0.0000000000E+00  0.0000000000E+00  0.0000000000E+00
                       0.0000000000E+00  0.0000000000E+00  0.0000000000E+00
                       0.0000000000E+00  0.0000000000E+00  0.0000000000E+00
                       0.0000000000E+00  0.0000000000E+00  0.0000000000E+00
                       0.0000000000E+00  0.0000000000E+00  0.0000000000E+00
                       0.0000000000E+00  0.0000000000E+00  0.0000000000E+00
                       0.0000000000E+00  0.0000000000E+00  0.0000000000E+00
                       0.0000000000E+00  0.0000000000E+00  0.0000000000E+00
                       0.0000000000E+00  0.0000000000E+00  0.0000000000E+00
                       0.0000000000E+00  0.0000000000E+00 -1.0000000000E+00
           strten1     1.1488815417E-05  2.1020644101E-05  2.2034784321E-05
                       4.2751999795E-10  4.9551759937E-11  2.2916282347E-11
           toldfe1     1.00000000E-06 Hartree
           toldfe2     0.00000000E+00 Hartree
           tolwfr1     0.00000000E+00
           tolwfr2     1.00000000E-12
            typat      2  1  1  1  1  1  1  1  1  1  1  1  1  1  1  1  1  2
           useylm           1
              wtk1       0.06667    0.06667    0.06667    0.06667    0.06667    0.06667
                         0.06667    0.06667    0.06667    0.06667    0.06667    0.06667
                         0.06667    0.06667    0.06667
              wtk2       1.00000    1.00000    1.00000    1.00000    1.00000    1.00000
                         1.00000    1.00000    1.00000    1.00000    1.00000    1.00000
                         1.00000    1.00000    1.00000    1.00000
           xangst      2.1924687653E-06 -8.9347127982E+00  1.2253261414E+00
                      -6.3335522880E-06 -7.8374663590E+00  1.2252914015E+00
                      -1.2466279888E-05 -7.1553103483E+00 -9.0703680259E-03
                      -2.4889138031E-05 -5.7095725410E+00 -9.0145181006E-03
                      -3.0871693702E-05 -5.0013301057E+00  1.2253608862E+00
                      -4.2554247256E-05 -3.5682760068E+00  1.2253671991E+00
                      -4.7331677516E-05 -2.8569447694E+00 -8.9956653736E-03
                      -5.1814279312E-05 -1.4267271463E+00 -8.9761860125E-03
                      -5.0440741501E-05 -7.1470430595E-01  1.2253949192E+00
                      -3.9645629859E-05  7.1487653105E-01  1.2253974953E+00
                      -3.1339882842E-05  1.4268988477E+00 -8.9725857920E-03
                      -1.2927341998E-05  2.8571142755E+00 -8.9900137798E-03
                      -3.8630326290E-06  3.5684443157E+00  1.2253733133E+00
                       1.1398425826E-05  5.0014956819E+00  1.2253679131E+00
                       1.7259567710E-05  5.7097392667E+00 -9.0075717678E-03
                       2.3882826847E-05  7.1554797931E+00 -9.0650236494E-03
                       2.4511032039E-05  7.8376359584E+00  1.2252964978E+00
                       2.2583175635E-05  8.9348828407E+00  1.2253293079E+00
            xcart      4.1431655213E-06 -1.6884160265E+01  2.3155308307E+00
                      -1.1968679273E-05 -1.4810664994E+01  2.3154651818E+00
                      -2.3557854884E-05 -1.3521576954E+01 -1.7140511493E-02
                      -4.7033654562E-05 -1.0789528438E+01 -1.7034970430E-02
                      -5.8339046355E-05 -9.4511441999E+00  2.3155964889E+00
                      -8.0415873105E-05 -6.7430644194E+00  2.3156084185E+00
                      -8.9443907915E-05 -5.3988431909E+00 -1.6999343939E-02
                      -9.7914797673E-05 -2.6961235729E+00 -1.6962533281E-02
                      -9.5319187377E-05 -1.3505954042E+00  2.3156608019E+00
                      -7.4919382799E-05  1.3509208625E+00  2.3156656700E+00
                      -5.9223795608E-05  2.6964480415E+00 -1.6955729851E-02
                      -2.4429136002E-05  5.3991635111E+00 -1.6988663975E-02
                      -7.3000737112E-06  6.7433824771E+00  2.3156199727E+00
                       2.1539903157E-05  9.4514570936E+00  2.3156097678E+00
                       3.2615856144E-05  1.0789843504E+01 -1.7021843763E-02
                       4.5132002020E-05  1.3521897158E+01 -1.7130412085E-02
                       4.6319137788E-05  1.4810985491E+01  2.3154748124E+00
                       4.2676017161E-05  1.6884481598E+01  2.3155368145E+00
             xred      1.4616458439E-07 -2.5527750852E-01  4.9634001573E-01
                      -4.2223681918E-07 -2.2392761026E-01  4.9632594372E-01
                      -8.3108532585E-07 -2.0443743852E-01 -3.6741129211E-03
                      -1.6592758687E-06 -1.6313064403E-01 -3.6514899215E-03
                      -2.0581129135E-06 -1.4289514588E-01  4.9635408973E-01
                      -2.8369498171E-06 -1.0195074305E-01  4.9635664688E-01
                      -3.1554451678E-06 -8.1626993411E-02 -3.6438532911E-03
                      -3.4542852875E-06 -4.0763632751E-02 -3.6359628316E-03
                      -3.3627161001E-06 -2.0420123027E-02  4.9636787540E-01
                      -2.6430419906E-06  2.0425043744E-02  4.9636891889E-01
                      -2.0893255228E-06  4.0768538506E-02 -3.6345044986E-03
                      -8.6182279989E-07  8.1631836443E-02 -3.6415640132E-03
                      -2.5753550862E-07  1.0195555188E-01  4.9635912355E-01
                       7.5989505505E-07  1.4289987663E-01  4.9635693610E-01
                       1.1506378473E-06  1.6313540762E-01 -3.6486761866E-03
                       1.5921884565E-06  2.0444227980E-01 -3.6719480869E-03
                       1.6340688026E-06  2.2393245595E-01  4.9632800807E-01
                       1.5055450423E-06  2.5528236688E-01  4.9634129838E-01
            znucl        6.00000    1.00000

================================================================================

- Total cpu        time (s,m,h):      12618.1      210.30      3.505
- Total wall clock time (s,m,h):       8072.2      134.54      2.242
-
- For major independent code sections, cpu and wall times (sec),
-  as well as % of the time and number of calls for node 0-
-<BEGIN_TIMER mpi_nprocs = 1, omp_nthreads = 1, mpi_rank = 0>
- cpu_time =        12618.1, wall_time =         8072.2
-
- routine                        cpu     %       wall     %      number of calls  Gflops    Speedup Efficacity
-                                                                  (-1=no count)
- vtowfk(ssdiag)              4849.630  38.4    309.212   3.8             -1      -1.00       15.68      15.68
- nonlop(apply)               3975.557  31.5   3975.870  49.3         246661      -1.00        1.00       1.00
- fourwf%(pot)                2140.093  17.0   2137.932  26.5         246661      -1.00        1.00       1.00
- projbd                       883.374   7.0    883.895  10.9         182221      -1.00        1.00       1.00
- vtowfk(contrib)              212.130   1.7    212.062   2.6            872      -1.00        1.00       1.00
- fourwf%(den)                 132.667   1.1    132.788   1.6          28074      -1.00        1.00       1.00
- others (107)                 169.339   1.3    166.614   2.1             -1      -1.00        1.02       1.02
-<END_TIMER>
-
- subtotal                   12362.790  98.0   7818.373  96.9                                  1.58       1.58

- For major independent code sections, cpu and wall times (sec),
- as well as % of the total time and number of calls 

-<BEGIN_TIMER mpi_nprocs = 1, omp_nthreads = 1, mpi_rank = world>
- cpu_time =       12618.1, wall_time =        8072.2
-
- routine                         cpu     %       wall     %      number of calls Gflops    Speedup Efficacity
-                                                                  (-1=no count)
- vtowfk(ssdiag)              4849.630  38.4    309.212   3.8             -1      -1.00       15.68      15.68
- nonlop(apply)               3975.557  31.5   3975.870  49.3         246661      -1.00        1.00       1.00
- fourwf%(pot)                2140.093  17.0   2137.932  26.5         246661      -1.00        1.00       1.00
- projbd                       883.374   7.0    883.895  10.9         182221      -1.00        1.00       1.00
- vtowfk(contrib)              212.130   1.7    212.062   2.6            872      -1.00        1.00       1.00
- fourwf%(den)                 132.667   1.1    132.788   1.6          28074      -1.00        1.00       1.00
- others (107)                 169.339   1.3    166.614   2.1             -1      -1.00        1.02       1.02
-<END_TIMER>

- subtotal                   12362.790  98.0   7818.373  96.9                                  1.58       1.58

================================================================================

 Suggested references for the acknowledgment of ABINIT usage.

 The users of ABINIT have little formal obligations with respect to the ABINIT group
 (those specified in the GNU General Public License, http://www.gnu.org/copyleft/gpl.txt).
 However, it is common practice in the scientific literature,
 to acknowledge the efforts of people that have made the research possible.
 In this spirit, please find below suggested citations of work written by ABINIT developers,
 corresponding to implementations inside of ABINIT that you have used in the present run.
 Note also that it will be of great value to readers of publications presenting these results,
 to read papers enabling them to understand the theoretical formalism and details
 of the ABINIT implementation.
 For information on why they are suggested, see also http://www.abinit.org/about/?text=acknowledgments.
-
- [1] Implementation of the Projector Augmented-Wave Method in the ABINIT code.
- M. Torrent, F. Jollet, F. Bottin, G. Zerah, and X. Gonze Comput. Mat. Science 42, 337, (2008).
- Comment : PAW calculations. Strong suggestion to cite this paper.
-
- [2] Recent developments in the ABINIT software package.
- Computer Phys. Comm. 205, 106 (2016).
- X.Gonze, F.Jollet, F.Abreu Araujo, D.Adams, B.Amadon, T.Applencourt,
- C.Audouze, J.-M.Beuken, J.Bieder, A.Bokhanchuk, E.Bousquet, F.Bruneval
- D.Caliste, M.Cote, F.Dahm, F.Da Pieve, M.Delaveau, M.Di Gennaro,
- B.Dorado, C.Espejo, G.Geneste, L.Genovese, A.Gerossier, M.Giantomassi,
- Y.Gillet, D.R.Hamann, L.He, G.Jomard, J.Laflamme Janssen, S.Le Roux,
- A.Levitt, A.Lherbier, F.Liu, I.Lukacevic, A.Martin, C.Martins,
- M.J.T.Oliveira, S.Ponce, Y.Pouillon, T.Rangel, G.-M.Rignanese,
- A.H.Romero, B.Rousseau, O.Rubel, A.A.Shukri, M.Stankovski, M.Torrent,
- M.J.Van Setten, B.Van Troeye, M.J.Verstraete, D.Waroquier, J.Wiktor,
- B.Xue, A.Zhou, J.W.Zwanziger.
- Comment : the fourth generic paper describing the ABINIT project.
- Note that a version of this paper, that is not formatted for Computer Phys. Comm. 
- is available at http://www.abinit.org/about/ABINIT16.pdf .
- The licence allows the authors to put it on the Web.
-
- [3] ABINIT : First-principles approach of materials and nanosystem properties.
- Computer Phys. Comm. 180, 2582-2615 (2009).
- X. Gonze, B. Amadon, P.-M. Anglade, J.-M. Beuken, F. Bottin, P. Boulanger, F. Bruneval,
- D. Caliste, R. Caracas, M. Cote, T. Deutsch, L. Genovese, Ph. Ghosez, M. Giantomassi
- S. Goedecker, D.R. Hamann, P. Hermet, F. Jollet, G. Jomard, S. Leroux, M. Mancini, S. Mazevet,
- M.J.T. Oliveira, G. Onida, Y. Pouillon, T. Rangel, G.-M. Rignanese, D. Sangalli, R. Shaltaf,
- M. Torrent, M.J. Verstraete, G. Zerah, J.W. Zwanziger
- Comment : the third generic paper describing the ABINIT project.
- Note that a version of this paper, that is not formatted for Computer Phys. Comm. 
- is available at http://www.abinit.org/about/ABINIT_CPC_v10.pdf .
- The licence allows the authors to put it on the Web.
-
- [4] A brief introduction to the ABINIT software package.
- Z. Kristallogr. 220, 558-562 (2005).
- X. Gonze, G.-M. Rignanese, M. Verstraete, J.-M. Beuken, Y. Pouillon, R. Caracas, F. Jollet,
- M. Torrent, G. Zerah, M. Mikami, Ph. Ghosez, M. Veithen, J.-Y. Raty, V. Olevano, F. Bruneval,
- L. Reining, R. Godby, G. Onida, D.R. Hamann, and D.C. Allan.
- Comment : the second generic paper describing the ABINIT project. Note that this paper
- should be cited especially if you are using the GW part of ABINIT, as several authors
- of this part are not in the list of authors of the first or third paper.
- The .pdf of the latter paper is available at http://www.abinit.org/about/zfk_0505-06_558-562.pdf.
- Note that it should not redistributed (Copyright by Oldenburg Wissenshaftverlag,
- the licence allows the authors to put it on the Web).
-
- And optionally:
-
- [5] First-principles computation of material properties : the ABINIT software project. 
- X. Gonze, J.-M. Beuken, R. Caracas, F. Detraux, M. Fuchs, G.-M. Rignanese, L. Sindic,
- M. Verstraete, G. Zerah, F. Jollet, M. Torrent, A. Roy, M. Mikami, Ph. Ghosez, J.-Y. Raty, D.C. Allan.
- Computational Materials Science 25, 478-492 (2002). http://dx.doi.org/10.1016/S0927-0256(02)00325-7
- Comment : the original paper describing the ABINIT project.
-
- Proc.   0 individual time (sec): cpu=      12618.1  wall=       8072.2

================================================================================

 Calculation completed.
.Delivered  41 WARNINGs and   4 COMMENTs to log file.
+Overall time at end (sec) : cpu=      12618.1  wall=       8072.2
