
.Version 8.4.3 of ABINIT 
.(sequential version, prepared for a x86_64_linux_gnu5.4 computer) 

.Copyright (C) 1998-2017 ABINIT group . 
 ABINIT comes with ABSOLUTELY NO WARRANTY.
 It is free software, and you are welcome to redistribute it
 under certain conditions (GNU General Public License,
 see ~abinit/COPYING or http://www.gnu.org/copyleft/gpl.txt).

 ABINIT is a project of the Universite Catholique de Louvain,
 Corning Inc. and other collaborators, see ~abinit/doc/developers/contributors.txt .
 Please read ~abinit/doc/users/acknowledgments.html for suggested
 acknowledgments of the ABINIT effort.
 For more information, see http://www.abinit.org .

.Starting date : Thu 24 Aug 2017.
- ( at 15h56 )
  
- input  file    -> zgnr.in
- output file    -> zgnr.out
- root for input  files -> zgnri
- root for output files -> zgnro


 DATASET    1 : space group P1 (#  1); Bravais aP (primitive triclinic)
================================================================================
 Values of the parameters that define the memory need for DATASET  1.
     intxc =       0    ionmov =       0      iscf =      17    lmnmax =       8
     lnmax =       4     mgfft =     225  mpssoang =       2    mqgrid =   18831
     natom =      18  nloc_mem =       2    nspden =       2   nspinor =       1
    nsppol =       2      nsym =       1    n1xccc =       1    ntypat =       2
    occopt =       7   xclevel =       2
-    mband =          42        mffmem =           1         mkmem =          15
       mpw =       22040          nfft =      345600          nkpt =          15
 PAW method is used; the additional fine FFT grid is defined by:
   mgfftf=       384    nfftf =   1866240
================================================================================
P This job should need less than                    1237.403 Mbytes of memory.
  Rough estimation (10% accuracy) of disk space for files :
_ WF disk file :    423.745 Mbytes ; DEN or POT disk file :     28.479 Mbytes.
================================================================================


 DATASET    2 : space group P1 (#  1); Bravais aP (primitive triclinic)
================================================================================
 Values of the parameters that define the memory need for DATASET  2.
     intxc =       0    ionmov =       0      iscf =      -2    lmnmax =       8
     lnmax =       4     mgfft =     225  mpssoang =       2    mqgrid =   18831
     natom =      18  nloc_mem =       2    nspden =       2   nspinor =       1
    nsppol =       2      nsym =       1    n1xccc =       1    ntypat =       2
    occopt =       7   xclevel =       2
-    mband =          40        mffmem =           1         mkmem =          16
       mpw =       22062          nfft =      345600          nkpt =          16
 PAW method is used; the additional fine FFT grid is defined by:
   mgfftf=       384    nfftf =   1866240
================================================================================
P This job should need less than                    1047.067 Mbytes of memory.
  Rough estimation (10% accuracy) of disk space for files :
_ WF disk file :    430.900 Mbytes ; DEN or POT disk file :     28.479 Mbytes.
================================================================================

--------------------------------------------------------------------------------
------------- Echo of variables that govern the present computation ------------
--------------------------------------------------------------------------------
-
- outvars: echo of selected default values                                      
-   iomode0 =  0 , fftalg0 =112 , wfoptalg0 = 10
-
- outvars: echo of global parameters not present in the input file              
-  max_nthreads =    0
-
 -outvars: echo values of preprocessed input variables --------
            acell      2.8345891993E+01  6.6140414651E+01  4.6652108581E+00 Bohr
              amu      1.20110000E+01  1.00794000E+00
           diemac      1.00000000E+01
             ecut      1.40000000E+01 Hartree
           enunit1          0
           enunit2          1
-          fftalg         112
           getden1          0
           getden2         -1
             iscf1         17
             iscf2         -2
           istwfk2       2    0    0    0    0    0    0    0    0    0
                         0    0    0    0    0    4
              ixc          11
           jdtset        1    2
              kpt1     0.00000000E+00  0.00000000E+00  1.66666667E-02
                       0.00000000E+00  0.00000000E+00  5.00000000E-02
                       0.00000000E+00  0.00000000E+00  8.33333333E-02
                       0.00000000E+00  0.00000000E+00  1.16666667E-01
                       0.00000000E+00  0.00000000E+00  1.50000000E-01
                       0.00000000E+00  0.00000000E+00  1.83333333E-01
                       0.00000000E+00  0.00000000E+00  2.16666667E-01
                       0.00000000E+00  0.00000000E+00  2.50000000E-01
                       0.00000000E+00  0.00000000E+00  2.83333333E-01
                       0.00000000E+00  0.00000000E+00  3.16666667E-01
                       0.00000000E+00  0.00000000E+00  3.50000000E-01
                       0.00000000E+00  0.00000000E+00  3.83333333E-01
                       0.00000000E+00  0.00000000E+00  4.16666667E-01
                       0.00000000E+00  0.00000000E+00  4.50000000E-01
                       0.00000000E+00  0.00000000E+00  4.83333333E-01
              kpt2     0.00000000E+00  0.00000000E+00  0.00000000E+00
                       0.00000000E+00  0.00000000E+00  3.33333333E-02
                       0.00000000E+00  0.00000000E+00  6.66666667E-02
                       0.00000000E+00  0.00000000E+00  1.00000000E-01
                       0.00000000E+00  0.00000000E+00  1.33333333E-01
                       0.00000000E+00  0.00000000E+00  1.66666667E-01
                       0.00000000E+00  0.00000000E+00  2.00000000E-01
                       0.00000000E+00  0.00000000E+00  2.33333333E-01
                       0.00000000E+00  0.00000000E+00  2.66666667E-01
                       0.00000000E+00  0.00000000E+00  3.00000000E-01
                       0.00000000E+00  0.00000000E+00  3.33333333E-01
                       0.00000000E+00  0.00000000E+00  3.66666667E-01
                       0.00000000E+00  0.00000000E+00  4.00000000E-01
                       0.00000000E+00  0.00000000E+00  4.33333333E-01
                       0.00000000E+00  0.00000000E+00  4.66666667E-01
                       0.00000000E+00  0.00000000E+00  5.00000000E-01
           kptopt1          1
           kptopt2         -1
         kptrlatt        1    0    0      0    1    0      0    0   30
          kptrlen1     1.39956326E+02
          kptrlen2     3.00000000E+01
P           mkmem1         15
P           mkmem2         16
            natom          18
            nband1         42
            nband2         40
           nbdbuf1          0
           nbdbuf2          2
           ndtset           2
            ngfft          96     225      16
          ngfftdg         162     384      30
             nkpt1         15
             nkpt2         16
           nspden           2
           nsppol           2
            nstep          80
             nsym           1
           ntypat           2
              occ      1.000000  1.000000  1.000000  1.000000  1.000000  1.000000
                       1.000000  1.000000  1.000000  1.000000  1.000000  1.000000
                       1.000000  1.000000  1.000000  1.000000  1.000000  1.000000
                       1.000000  1.000000  1.000000  1.000000  1.000000  1.000000
                       1.000000  1.000000  1.000000  1.000000  1.000000  1.000000
                       1.000000  1.000000  1.000000  0.000000  0.000000  0.000000
                       0.000000  0.000000  0.000000  0.000000  0.000000  0.000000
                       1.000000  1.000000  1.000000  1.000000  1.000000  1.000000
                       1.000000  1.000000  1.000000  1.000000  1.000000  1.000000
                       1.000000  1.000000  1.000000  1.000000  1.000000  1.000000
                       1.000000  1.000000  1.000000  1.000000  1.000000  1.000000
                       1.000000  1.000000  1.000000  1.000000  1.000000  1.000000
                       1.000000  1.000000  1.000000  0.000000  0.000000  0.000000
                       0.000000  0.000000  0.000000  0.000000  0.000000  0.000000
                       1.000000  1.000000  1.000000  1.000000  1.000000  1.000000
                       1.000000  1.000000  1.000000  1.000000  1.000000  1.000000
                       1.000000  1.000000  1.000000  1.000000  1.000000  1.000000
                       1.000000  1.000000  1.000000  1.000000  1.000000  1.000000
                       1.000000  1.000000  1.000000  1.000000  1.000000  1.000000
                       1.000000  1.000000  1.000000  0.000000  0.000000  0.000000
                       0.000000  0.000000  0.000000  0.000000  0.000000  0.000000
                       1.000000  1.000000  1.000000  1.000000  1.000000  1.000000
                       1.000000  1.000000  1.000000  1.000000  1.000000  1.000000
                       1.000000  1.000000  1.000000  1.000000  1.000000  1.000000
                       1.000000  1.000000  1.000000  1.000000  1.000000  1.000000
                       1.000000  1.000000  1.000000  1.000000  1.000000  1.000000
                       1.000000  1.000000  1.000000  0.000000  0.000000  0.000000
                       0.000000  0.000000  0.000000  0.000000  0.000000  0.000000
                       1.000000  1.000000  1.000000  1.000000  1.000000  1.000000
                       1.000000  1.000000  1.000000  1.000000  1.000000  1.000000
                       1.000000  1.000000  1.000000  1.000000  1.000000  1.000000
                       1.000000  1.000000  1.000000  1.000000  1.000000  1.000000
                       1.000000  1.000000  1.000000  1.000000  1.000000  1.000000
                       1.000000  1.000000  1.000000  0.000000  0.000000  0.000000
                       0.000000  0.000000  0.000000  0.000000  0.000000  0.000000
                       1.000000  1.000000  1.000000  1.000000  1.000000  1.000000
                       1.000000  1.000000  1.000000  1.000000  1.000000  1.000000
                       1.000000  1.000000  1.000000  1.000000  1.000000  1.000000
                       1.000000  1.000000  1.000000  1.000000  1.000000  1.000000
                       1.000000  1.000000  1.000000  1.000000  1.000000  1.000000
                       1.000000  1.000000  1.000000  0.000000  0.000000  0.000000
                       0.000000  0.000000  0.000000  0.000000  0.000000  0.000000
                       1.000000  1.000000  1.000000  1.000000  1.000000  1.000000
                       1.000000  1.000000  1.000000  1.000000  1.000000  1.000000
                       1.000000  1.000000  1.000000  1.000000  1.000000  1.000000
                       1.000000  1.000000  1.000000  1.000000  1.000000  1.000000
                       1.000000  1.000000  1.000000  1.000000  1.000000  1.000000
                       1.000000  1.000000  1.000000  0.000000  0.000000  0.000000
                       0.000000  0.000000  0.000000  0.000000  0.000000  0.000000
                       1.000000  1.000000  1.000000  1.000000  1.000000  1.000000
                       1.000000  1.000000  1.000000  1.000000  1.000000  1.000000
                       1.000000  1.000000  1.000000  1.000000  1.000000  1.000000
                       1.000000  1.000000  1.000000  1.000000  1.000000  1.000000
                       1.000000  1.000000  1.000000  1.000000  1.000000  1.000000
                       1.000000  1.000000  1.000000  0.000000  0.000000  0.000000
                       0.000000  0.000000  0.000000  0.000000  0.000000  0.000000
                       1.000000  1.000000  1.000000  1.000000  1.000000  1.000000
                       1.000000  1.000000  1.000000  1.000000  1.000000  1.000000
                       1.000000  1.000000  1.000000  1.000000  1.000000  1.000000
                       1.000000  1.000000  1.000000  1.000000  1.000000  1.000000
                       1.000000  1.000000  1.000000  1.000000  1.000000  1.000000
                       1.000000  1.000000  1.000000  0.000000  0.000000  0.000000
                       0.000000  0.000000  0.000000  0.000000  0.000000  0.000000
                       1.000000  1.000000  1.000000  1.000000  1.000000  1.000000
                       1.000000  1.000000  1.000000  1.000000  1.000000  1.000000
                       1.000000  1.000000  1.000000  1.000000  1.000000  1.000000
                       1.000000  1.000000  1.000000  1.000000  1.000000  1.000000
                       1.000000  1.000000  1.000000  1.000000  1.000000  1.000000
                       1.000000  1.000000  1.000000  0.000000  0.000000  0.000000
                       0.000000  0.000000  0.000000  0.000000  0.000000  0.000000
                       1.000000  1.000000  1.000000  1.000000  1.000000  1.000000
                       1.000000  1.000000  1.000000  1.000000  1.000000  1.000000
                       1.000000  1.000000  1.000000  1.000000  1.000000  1.000000
                       1.000000  1.000000  1.000000  1.000000  1.000000  1.000000
                       1.000000  1.000000  1.000000  1.000000  1.000000  1.000000
                       1.000000  1.000000  1.000000  0.000000  0.000000  0.000000
                       0.000000  0.000000  0.000000  0.000000  0.000000  0.000000
                       1.000000  1.000000  1.000000  1.000000  1.000000  1.000000
                       1.000000  1.000000  1.000000  1.000000  1.000000  1.000000
                       1.000000  1.000000  1.000000  1.000000  1.000000  1.000000
                       1.000000  1.000000  1.000000  1.000000  1.000000  1.000000
                       1.000000  1.000000  1.000000  1.000000  1.000000  1.000000
                       1.000000  1.000000  1.000000  0.000000  0.000000  0.000000
                       0.000000  0.000000  0.000000  0.000000  0.000000  0.000000
                       1.000000  1.000000  1.000000  1.000000  1.000000  1.000000
                       1.000000  1.000000  1.000000  1.000000  1.000000  1.000000
                       1.000000  1.000000  1.000000  1.000000  1.000000  1.000000
                       1.000000  1.000000  1.000000  1.000000  1.000000  1.000000
                       1.000000  1.000000  1.000000  1.000000  1.000000  1.000000
                       1.000000  1.000000  1.000000  0.000000  0.000000  0.000000
                       0.000000  0.000000  0.000000  0.000000  0.000000  0.000000
                       1.000000  1.000000  1.000000  1.000000  1.000000  1.000000
                       1.000000  1.000000  1.000000  1.000000  1.000000  1.000000
                       1.000000  1.000000  1.000000  1.000000  1.000000  1.000000
                       1.000000  1.000000  1.000000  1.000000  1.000000  1.000000
                       1.000000  1.000000  1.000000  1.000000  1.000000  1.000000
                       1.000000  1.000000  1.000000  0.000000  0.000000  0.000000
                       0.000000  0.000000  0.000000  0.000000  0.000000  0.000000
                       1.000000  1.000000  1.000000  1.000000  1.000000  1.000000
                       1.000000  1.000000  1.000000  1.000000  1.000000  1.000000
                       1.000000  1.000000  1.000000  1.000000  1.000000  1.000000
                       1.000000  1.000000  1.000000  1.000000  1.000000  1.000000
                       1.000000  1.000000  1.000000  1.000000  1.000000  1.000000
                       1.000000  1.000000  1.000000  0.000000  0.000000  0.000000
                       0.000000  0.000000  0.000000  0.000000  0.000000  0.000000
                       1.000000  1.000000  1.000000  1.000000  1.000000  1.000000
                       1.000000  1.000000  1.000000  1.000000  1.000000  1.000000
                       1.000000  1.000000  1.000000  1.000000  1.000000  1.000000
                       1.000000  1.000000  1.000000  1.000000  1.000000  1.000000
                       1.000000  1.000000  1.000000  1.000000  1.000000  1.000000
                       1.000000  1.000000  1.000000  0.000000  0.000000  0.000000
                       0.000000  0.000000  0.000000  0.000000  0.000000  0.000000
                       1.000000  1.000000  1.000000  1.000000  1.000000  1.000000
                       1.000000  1.000000  1.000000  1.000000  1.000000  1.000000
                       1.000000  1.000000  1.000000  1.000000  1.000000  1.000000
                       1.000000  1.000000  1.000000  1.000000  1.000000  1.000000
                       1.000000  1.000000  1.000000  1.000000  1.000000  1.000000
                       1.000000  1.000000  1.000000  0.000000  0.000000  0.000000
                       0.000000  0.000000  0.000000  0.000000  0.000000  0.000000
                       1.000000  1.000000  1.000000  1.000000  1.000000  1.000000
                       1.000000  1.000000  1.000000  1.000000  1.000000  1.000000
                       1.000000  1.000000  1.000000  1.000000  1.000000  1.000000
                       1.000000  1.000000  1.000000  1.000000  1.000000  1.000000
                       1.000000  1.000000  1.000000  1.000000  1.000000  1.000000
                       1.000000  1.000000  1.000000  0.000000  0.000000  0.000000
                       0.000000  0.000000  0.000000  0.000000  0.000000  0.000000
                       1.000000  1.000000  1.000000  1.000000  1.000000  1.000000
                       1.000000  1.000000  1.000000  1.000000  1.000000  1.000000
                       1.000000  1.000000  1.000000  1.000000  1.000000  1.000000
                       1.000000  1.000000  1.000000  1.000000  1.000000  1.000000
                       1.000000  1.000000  1.000000  1.000000  1.000000  1.000000
                       1.000000  1.000000  1.000000  0.000000  0.000000  0.000000
                       0.000000  0.000000  0.000000  0.000000  0.000000  0.000000
                       1.000000  1.000000  1.000000  1.000000  1.000000  1.000000
                       1.000000  1.000000  1.000000  1.000000  1.000000  1.000000
                       1.000000  1.000000  1.000000  1.000000  1.000000  1.000000
                       1.000000  1.000000  1.000000  1.000000  1.000000  1.000000
                       1.000000  1.000000  1.000000  1.000000  1.000000  1.000000
                       1.000000  1.000000  1.000000  0.000000  0.000000  0.000000
                       0.000000  0.000000  0.000000  0.000000  0.000000  0.000000
                       1.000000  1.000000  1.000000  1.000000  1.000000  1.000000
                       1.000000  1.000000  1.000000  1.000000  1.000000  1.000000
                       1.000000  1.000000  1.000000  1.000000  1.000000  1.000000
                       1.000000  1.000000  1.000000  1.000000  1.000000  1.000000
                       1.000000  1.000000  1.000000  1.000000  1.000000  1.000000
                       1.000000  1.000000  1.000000  0.000000  0.000000  0.000000
                       0.000000  0.000000  0.000000  0.000000  0.000000  0.000000
                       1.000000  1.000000  1.000000  1.000000  1.000000  1.000000
                       1.000000  1.000000  1.000000  1.000000  1.000000  1.000000
                       1.000000  1.000000  1.000000  1.000000  1.000000  1.000000
                       1.000000  1.000000  1.000000  1.000000  1.000000  1.000000
                       1.000000  1.000000  1.000000  1.000000  1.000000  1.000000
                       1.000000  1.000000  1.000000  0.000000  0.000000  0.000000
                       0.000000  0.000000  0.000000  0.000000  0.000000  0.000000
                       1.000000  1.000000  1.000000  1.000000  1.000000  1.000000
                       1.000000  1.000000  1.000000  1.000000  1.000000  1.000000
                       1.000000  1.000000  1.000000  1.000000  1.000000  1.000000
                       1.000000  1.000000  1.000000  1.000000  1.000000  1.000000
                       1.000000  1.000000  1.000000  1.000000  1.000000  1.000000
                       1.000000  1.000000  1.000000  0.000000  0.000000  0.000000
                       0.000000  0.000000  0.000000  0.000000  0.000000  0.000000
                       1.000000  1.000000  1.000000  1.000000  1.000000  1.000000
                       1.000000  1.000000  1.000000  1.000000  1.000000  1.000000
                       1.000000  1.000000  1.000000  1.000000  1.000000  1.000000
                       1.000000  1.000000  1.000000  1.000000  1.000000  1.000000
                       1.000000  1.000000  1.000000  1.000000  1.000000  1.000000
                       1.000000  1.000000  1.000000  0.000000  0.000000  0.000000
                       0.000000  0.000000  0.000000  0.000000  0.000000  0.000000
                       1.000000  1.000000  1.000000  1.000000  1.000000  1.000000
                       1.000000  1.000000  1.000000  1.000000  1.000000  1.000000
                       1.000000  1.000000  1.000000  1.000000  1.000000  1.000000
                       1.000000  1.000000  1.000000  1.000000  1.000000  1.000000
                       1.000000  1.000000  1.000000  1.000000  1.000000  1.000000
                       1.000000  1.000000  1.000000  0.000000  0.000000  0.000000
                       0.000000  0.000000  0.000000  0.000000  0.000000  0.000000
                       1.000000  1.000000  1.000000  1.000000  1.000000  1.000000
                       1.000000  1.000000  1.000000  1.000000  1.000000  1.000000
                       1.000000  1.000000  1.000000  1.000000  1.000000  1.000000
                       1.000000  1.000000  1.000000  1.000000  1.000000  1.000000
                       1.000000  1.000000  1.000000  1.000000  1.000000  1.000000
                       1.000000  1.000000  1.000000  0.000000  0.000000  0.000000
                       0.000000  0.000000  0.000000  0.000000  0.000000  0.000000
                       1.000000  1.000000  1.000000  1.000000  1.000000  1.000000
                       1.000000  1.000000  1.000000  1.000000  1.000000  1.000000
                       1.000000  1.000000  1.000000  1.000000  1.000000  1.000000
                       1.000000  1.000000  1.000000  1.000000  1.000000  1.000000
                       1.000000  1.000000  1.000000  1.000000  1.000000  1.000000
                       1.000000  1.000000  1.000000  0.000000  0.000000  0.000000
                       0.000000  0.000000  0.000000  0.000000  0.000000  0.000000
                       1.000000  1.000000  1.000000  1.000000  1.000000  1.000000
                       1.000000  1.000000  1.000000  1.000000  1.000000  1.000000
                       1.000000  1.000000  1.000000  1.000000  1.000000  1.000000
                       1.000000  1.000000  1.000000  1.000000  1.000000  1.000000
                       1.000000  1.000000  1.000000  1.000000  1.000000  1.000000
                       1.000000  1.000000  1.000000  0.000000  0.000000  0.000000
                       0.000000  0.000000  0.000000  0.000000  0.000000  0.000000
                       1.000000  1.000000  1.000000  1.000000  1.000000  1.000000
                       1.000000  1.000000  1.000000  1.000000  1.000000  1.000000
                       1.000000  1.000000  1.000000  1.000000  1.000000  1.000000
                       1.000000  1.000000  1.000000  1.000000  1.000000  1.000000
                       1.000000  1.000000  1.000000  1.000000  1.000000  1.000000
                       1.000000  1.000000  1.000000  0.000000  0.000000  0.000000
                       0.000000  0.000000  0.000000  0.000000  0.000000  0.000000
                       1.000000  1.000000  1.000000  1.000000  1.000000  1.000000
                       1.000000  1.000000  1.000000  1.000000  1.000000  1.000000
                       1.000000  1.000000  1.000000  1.000000  1.000000  1.000000
                       1.000000  1.000000  1.000000  1.000000  1.000000  1.000000
                       1.000000  1.000000  1.000000  1.000000  1.000000  1.000000
                       1.000000  1.000000  1.000000  0.000000  0.000000  0.000000
                       0.000000  0.000000  0.000000  0.000000  0.000000  0.000000
           occopt           7
        pawecutdg      4.00000000E+01 Hartree
          pawovlp      1.0000000000E+01
           shiftk1     0.00000000E+00  0.00000000E+00  5.00000000E-01
           shiftk2     5.00000000E-01  5.00000000E-01  5.00000000E-01
          spgroup           1
           spinat      0.0000000000E+00  0.0000000000E+00  1.0000000000E+00
                       0.0000000000E+00  0.0000000000E+00  0.0000000000E+00
                       0.0000000000E+00  0.0000000000E+00  0.0000000000E+00
                       0.0000000000E+00  0.0000000000E+00  0.0000000000E+00
                       0.0000000000E+00  0.0000000000E+00  0.0000000000E+00
                       0.0000000000E+00  0.0000000000E+00  0.0000000000E+00
                       0.0000000000E+00  0.0000000000E+00  0.0000000000E+00
                       0.0000000000E+00  0.0000000000E+00  0.0000000000E+00
                       0.0000000000E+00  0.0000000000E+00  0.0000000000E+00
                       0.0000000000E+00  0.0000000000E+00  0.0000000000E+00
                       0.0000000000E+00  0.0000000000E+00  0.0000000000E+00
                       0.0000000000E+00  0.0000000000E+00  0.0000000000E+00
                       0.0000000000E+00  0.0000000000E+00  0.0000000000E+00
                       0.0000000000E+00  0.0000000000E+00  0.0000000000E+00
                       0.0000000000E+00  0.0000000000E+00  0.0000000000E+00
                       0.0000000000E+00  0.0000000000E+00  0.0000000000E+00
                       0.0000000000E+00  0.0000000000E+00  0.0000000000E+00
                       0.0000000000E+00  0.0000000000E+00 -1.0000000000E+00
           toldfe1     1.00000000E-06 Hartree
           toldfe2     0.00000000E+00 Hartree
           tolwfr1     0.00000000E+00
           tolwfr2     1.00000000E-12
            typat      2  1  1  1  1  1  1  1  1  1  1  1  1  1  1  1  1  2
           useylm           1
              wtk1       0.06667    0.06667    0.06667    0.06667    0.06667    0.06667
                         0.06667    0.06667    0.06667    0.06667    0.06667    0.06667
                         0.06667    0.06667    0.06667
              wtk2       1.00000    1.00000    1.00000    1.00000    1.00000    1.00000
                         1.00000    1.00000    1.00000    1.00000    1.00000    1.00000
                         1.00000    1.00000    1.00000    1.00000
           xangst      2.1924687653E-06 -8.9347127982E+00  1.2253261414E+00
                      -6.3335522880E-06 -7.8374663590E+00  1.2252914015E+00
                      -1.2466279888E-05 -7.1553103483E+00 -9.0703680259E-03
                      -2.4889138031E-05 -5.7095725410E+00 -9.0145181006E-03
                      -3.0871693702E-05 -5.0013301057E+00  1.2253608862E+00
                      -4.2554247256E-05 -3.5682760068E+00  1.2253671991E+00
                      -4.7331677516E-05 -2.8569447694E+00 -8.9956653736E-03
                      -5.1814279312E-05 -1.4267271463E+00 -8.9761860125E-03
                      -5.0440741501E-05 -7.1470430595E-01  1.2253949192E+00
                      -3.9645629859E-05  7.1487653105E-01  1.2253974953E+00
                      -3.1339882842E-05  1.4268988477E+00 -8.9725857920E-03
                      -1.2927341998E-05  2.8571142755E+00 -8.9900137798E-03
                      -3.8630326290E-06  3.5684443157E+00  1.2253733133E+00
                       1.1398425826E-05  5.0014956819E+00  1.2253679131E+00
                       1.7259567710E-05  5.7097392667E+00 -9.0075717678E-03
                       2.3882826847E-05  7.1554797931E+00 -9.0650236494E-03
                       2.4511032039E-05  7.8376359584E+00  1.2252964978E+00
                       2.2583175635E-05  8.9348828407E+00  1.2253293079E+00
            xcart      4.1431655213E-06 -1.6884160265E+01  2.3155308307E+00
                      -1.1968679273E-05 -1.4810664994E+01  2.3154651818E+00
                      -2.3557854884E-05 -1.3521576954E+01 -1.7140511493E-02
                      -4.7033654562E-05 -1.0789528438E+01 -1.7034970430E-02
                      -5.8339046355E-05 -9.4511441999E+00  2.3155964889E+00
                      -8.0415873105E-05 -6.7430644194E+00  2.3156084185E+00
                      -8.9443907915E-05 -5.3988431909E+00 -1.6999343939E-02
                      -9.7914797673E-05 -2.6961235729E+00 -1.6962533281E-02
                      -9.5319187377E-05 -1.3505954042E+00  2.3156608019E+00
                      -7.4919382799E-05  1.3509208625E+00  2.3156656700E+00
                      -5.9223795608E-05  2.6964480415E+00 -1.6955729851E-02
                      -2.4429136002E-05  5.3991635111E+00 -1.6988663975E-02
                      -7.3000737112E-06  6.7433824771E+00  2.3156199727E+00
                       2.1539903157E-05  9.4514570936E+00  2.3156097678E+00
                       3.2615856144E-05  1.0789843504E+01 -1.7021843763E-02
                       4.5132002020E-05  1.3521897158E+01 -1.7130412085E-02
                       4.6319137788E-05  1.4810985491E+01  2.3154748124E+00
                       4.2676017161E-05  1.6884481598E+01  2.3155368145E+00
             xred      1.4616458439E-07 -2.5527750852E-01  4.9634001573E-01
                      -4.2223681918E-07 -2.2392761026E-01  4.9632594372E-01
                      -8.3108532585E-07 -2.0443743852E-01 -3.6741129211E-03
                      -1.6592758687E-06 -1.6313064403E-01 -3.6514899215E-03
                      -2.0581129135E-06 -1.4289514588E-01  4.9635408973E-01
                      -2.8369498171E-06 -1.0195074305E-01  4.9635664688E-01
                      -3.1554451678E-06 -8.1626993411E-02 -3.6438532911E-03
                      -3.4542852875E-06 -4.0763632751E-02 -3.6359628316E-03
                      -3.3627161001E-06 -2.0420123027E-02  4.9636787540E-01
                      -2.6430419906E-06  2.0425043744E-02  4.9636891889E-01
                      -2.0893255228E-06  4.0768538506E-02 -3.6345044986E-03
                      -8.6182279989E-07  8.1631836443E-02 -3.6415640132E-03
                      -2.5753550862E-07  1.0195555188E-01  4.9635912355E-01
                       7.5989505505E-07  1.4289987663E-01  4.9635693610E-01
                       1.1506378473E-06  1.6313540762E-01 -3.6486761866E-03
                       1.5921884565E-06  2.0444227980E-01 -3.6719480869E-03
                       1.6340688026E-06  2.2393245595E-01  4.9632800807E-01
                       1.5055450423E-06  2.5528236688E-01  4.9634129838E-01
            znucl        6.00000    1.00000

================================================================================

 chkinp: Checking input parameters for consistency, jdtset=   1.

 chkinp: Checking input parameters for consistency, jdtset=   2.

================================================================================
== DATASET  1 ==================================================================
-   nproc =    1

 Exchange-correlation functional for the present dataset will be:
  GGA: Perdew-Burke-Ernzerhof functional - ixc=11
 Citation for XC functional:
  J.P.Perdew, K.Burke, M.Ernzerhof, PRL 77, 3865 (1996)

 Real(R)+Recip(G) space primitive vectors, cartesian coordinates (Bohr,Bohr^-1):
 R(1)= 28.3458920  0.0000000  0.0000000  G(1)=  0.0352785  0.0000000  0.0000000
 R(2)=  0.0000000 66.1404147  0.0000000  G(2)=  0.0000000  0.0151193  0.0000000
 R(3)=  0.0000000  0.0000000  4.6652109  G(3)=  0.0000000  0.0000000  0.2143526
 Unit cell volume ucvol=  8.7463795E+03 bohr^3
 Angles (23,13,12)=  9.00000000E+01  9.00000000E+01  9.00000000E+01 degrees

 Coarse grid specifications (used for wave-functions):

 getcut: wavevector=  0.0000  0.0000  0.0000  ngfft=  96 225  16
         ecut(hartree)=     14.000   => boxcut(ratio)=   2.01072

 Fine grid specifications (used for densities):

 getcut: wavevector=  0.0000  0.0000  0.0000  ngfft= 162 384  30
         ecut(hartree)=     40.000   => boxcut(ratio)=   2.00738

--- Pseudopotential description ------------------------------------------------
- pspini: atom type   1  psp file is ./6c-gga-uspp.paw
- pspatm: opening atomic psp file    ./6c-gga-uspp.paw
- C  (US d-loc) - PAW data extracted from US-psp (D.Vanderbilt) - generated by USpp2Abinit v2.1.4
-  6.00000   4.00000  20070502                znucl, zion, pspdat
    7   11    1    0       560   0.00000      pspcod,pspxc,lmax,lloc,mmax,r2well
 Pseudopotential format is: paw3
 basis_size (lnmax)=  4 (lmn_size=  8), orbitals=   0   0   1   1
 Spheres core radius: rc_sph= 1.55500091
 4 radial meshes are used:
  - mesh 1: r(i)=AA*[exp(BB*(i-1))-1], size= 560 , AA= 0.15198E-03 BB= 0.16667E-01
  - mesh 2: r(i)=AA*[exp(BB*(i-1))-1], size= 556 , AA= 0.15198E-03 BB= 0.16667E-01
  - mesh 3: r(i)=AA*[exp(BB*(i-1))-1], size= 576 , AA= 0.15198E-03 BB= 0.16667E-01
  - mesh 4: r(i)=AA*[exp(BB*(i-1))-1], size= 666 , AA= 0.15198E-03 BB= 0.16667E-01
 Shapefunction is BESSEL type: shapef(r,l)=aa(1,l)*jl(q(1,l)*r)+aa(2,l)*jl(q(2,l)*r)
 Radius for shape functions = sphere core radius
 Radial grid used for partial waves is grid 1
 Radial grid used for projectors is grid  2
 Radial grid used for (t)core density is grid 3
 Radial grid used for Vloc is grid 4
 Compensation charge density is taken into account in XC energy/potential
 pspatm: atomic psp has been read  and splines computed

- pspini: atom type   2  psp file is ./1h-gga-uspp.paw
- pspatm: opening atomic psp file    ./1h-gga-uspp.paw
- hydrogen - PAW data extracted from US-psp (D.Vanderbilt) - generated by USpp2Abinit v2.1.4
-  1.00000   1.00000  20070502                znucl, zion, pspdat
    7   11    0    0       354   0.00000      pspcod,pspxc,lmax,lloc,mmax,r2well
 Pseudopotential format is: paw3
 basis_size (lnmax)=  2 (lmn_size=  2), orbitals=   0   0
 Spheres core radius: rc_sph= 0.90082634
 3 radial meshes are used:
  - mesh 1: r(i)=AA*[exp(BB*(i-1))-1], size= 354 , AA= 0.24788E-02 BB= 0.16949E-01
  - mesh 2: r(i)=AA*[exp(BB*(i-1))-1], size= 350 , AA= 0.24788E-02 BB= 0.16949E-01
  - mesh 3: r(i)=AA*[exp(BB*(i-1))-1], size= 490 , AA= 0.24788E-02 BB= 0.16949E-01
 Shapefunction is BESSEL type: shapef(r,l)=aa(1,l)*jl(q(1,l)*r)+aa(2,l)*jl(q(2,l)*r)
 Radius for shape functions = sphere core radius
 Radial grid used for partial waves is grid 1
 Radial grid used for projectors is grid  2
 Radial grid used for (t)core density is grid 1
 Radial grid used for Vloc is grid 3
 Compensation charge density is taken into account in XC energy/potential
 pspatm: atomic psp has been read  and splines computed

   4.66089465E+03                                ecore*ucvol(ha*bohr**3)
--------------------------------------------------------------------------------

_setup2: Arith. and geom. avg. npw (full set) are   21881.333   21880.837

================================================================================

     iter   Etot(hartree)     deltaE(h) residm    nres2    magn
 ETOT  1  -93.149554682743    -9.31E+01 4.94E-02 1.04E+02 0.003
 ETOT  2  -93.009014611363     1.41E-01 3.65E-03 1.01E+01 0.002
 ETOT  3  -92.949924450316     5.91E-02 1.07E-03 7.84E-01 0.005
 ETOT  4  -92.958655288872    -8.73E-03 1.68E-03 2.88E-01 0.001
 ETOT  5  -92.985784477891    -2.71E-02 6.20E-04 1.18E-01 0.001
 ETOT  6  -93.010968922063    -2.52E-02 4.58E-04 7.56E-02 0.000
 ETOT  7  -93.039320931974    -2.84E-02 3.25E-04 4.09E-02 0.002
 ETOT  8  -93.057806623739    -1.85E-02 1.78E-04 1.92E-02 0.000
 ETOT  9  -93.066233731541    -8.43E-03 1.26E-04 1.04E-02 0.000
 ETOT 10  -93.070739904233    -4.51E-03 5.03E-04 6.05E-03 0.000
 ETOT 11  -93.073170781767    -2.43E-03 1.82E-03 3.90E-03 0.000
 ETOT 12  -93.075380325427    -2.21E-03 1.08E-04 2.02E-03 0.000
 ETOT 13  -93.076312941977    -9.33E-04 9.24E-05 1.06E-03 0.000
 ETOT 14  -93.076954906447    -6.42E-04 8.67E-05 4.40E-04 0.000
 ETOT 15  -93.077315460097    -3.61E-04 2.65E-04 2.32E-04 0.000
 ETOT 16  -93.077565560528    -2.50E-04 2.71E-04 1.11E-04 0.000
 ETOT 17  -93.077767021039    -2.01E-04 3.29E-04 6.02E-05 0.000
 ETOT 18  -93.077947391574    -1.80E-04 1.16E-03 3.12E-05 0.000
 ETOT 19  -93.078045693504    -9.83E-05 2.04E-04 1.53E-05 0.000
 ETOT 20  -93.078102461130    -5.68E-05 2.29E-03 7.46E-06 0.000
 ETOT 21  -93.078148898347    -4.64E-05 5.82E-04 3.12E-06 0.000
 ETOT 22  -93.078191389231    -4.25E-05 1.89E-04 1.54E-06 0.000
 ETOT 23  -93.078247013282    -5.56E-05 1.72E-04 5.44E-07 0.000
 ETOT 24  -93.078269880846    -2.29E-05 4.86E-05 2.84E-07 0.000
 ETOT 25  -93.078291622910    -2.17E-05 3.33E-05 9.47E-08 0.000
 ETOT 26  -93.078297064084    -5.44E-06 2.68E-05 3.96E-08 0.000
 ETOT 27  -93.078305394344    -8.33E-06 2.82E-05 1.23E-08 0.000
 ETOT 28  -93.078307752398    -2.36E-06 1.40E-05 7.08E-09 0.000
 ETOT 29  -93.078309309192    -1.56E-06 1.25E-05 3.31E-09 0.000
 ETOT 30  -93.078309977445    -6.68E-07 1.05E-05 1.66E-09 0.000
 ETOT 31  -93.078310350214    -3.73E-07 5.83E-06 8.37E-10 0.000

 At SCF step   31, etot is converged : 
  for the second time, diff in etot=  3.728E-07 < toldfe=  1.000E-06

 Cartesian components of stress tensor (hartree/bohr^3)
  sigma(1 1)=  2.41203985E-07  sigma(3 2)=  4.24661621E-10
  sigma(2 2)=  8.03212588E-07  sigma(3 1)=  2.53898293E-12
  sigma(3 3)= -3.00072465E-07  sigma(2 1)=  1.55170083E-12

 Integrated electronic and magnetization densities in atomic spheres:
 ---------------------------------------------------------------------
 Note: Diff(up-dn) is a rough approximation of local magnetic moment
 Atom    Radius    up_density   dn_density  Total(up+dn)  Diff(up-dn)
    1   0.90083     0.226964     0.228880      0.455844    -0.001917
    2   1.55500     1.498204     1.369937      2.868141     0.128266
    3   1.55500     1.441631     1.469961      2.911592    -0.028329
    4   1.55500     1.467086     1.429651      2.896737     0.037435
    5   1.55500     1.444681     1.459298      2.903979    -0.014617
    6   1.55500     1.457436     1.443032      2.900468     0.014405
    7   1.55500     1.447957     1.456642      2.904599    -0.008685
    8   1.55500     1.456217     1.448006      2.904224     0.008211
    9   1.55500     1.447684     1.454643      2.902327    -0.006959
   10   1.55500     1.455224     1.448264      2.903488     0.006960
   11   1.55500     1.448009     1.456220      2.904229    -0.008211
   12   1.55500     1.456642     1.447957      2.904599     0.008685
   13   1.55500     1.443035     1.457440      2.900475    -0.014405
   14   1.55500     1.460617     1.446001      2.906618     0.014617
   15   1.55500     1.429391     1.466827      2.896217    -0.037436
   16   1.55500     1.469733     1.441408      2.911142     0.028325
   17   1.55500     1.370126     1.498420      2.868546    -0.128294
   18   0.90083     0.228928     0.227013      0.455941     0.001916
 ---------------------------------------------------------------------
  Sum:             23.649567    23.649600     47.299167    -0.000033
 Total magnetization (from the atomic spheres):            -0.000033
 Total magnetization (exact up - dn):                      -0.000004

 PAW TEST:
 ==== Compensation charge inside spheres ============
 The following values must be close to each other ...
 Compensation charge over spherical meshes =      3.711208365605031
 Compensation charge over fine fft grid    =      3.711209733591309

 ==== Results concerning PAW augmentation regions ====

 Total pseudopotential strength Dij (hartree):
 Atom #  1 - Spin component 1
  -0.05887   0.11121
   0.11121  -0.19346
 Atom #  1 - Spin component 2
  -0.05894   0.11138
   0.11138  -0.19384
 Atom # 18 - Spin component 1
  -0.05894   0.11138
   0.11138  -0.19384
 Atom # 18 - Spin component 2
  -0.05887   0.11121
   0.11121  -0.19346


 Augmentation waves occupancies Rhoij:
 Atom #  1 - Spin component 1
   1.28875   0.11723
   0.11723   0.01384
 Atom #  1 - Spin component 2
   1.29025   0.11418
   0.11418   0.01325
 Atom # 18 - Spin component 1
   1.29025   0.11418
   0.11418   0.01325
 Atom # 18 - Spin component 2
   1.28875   0.11723
   0.11723   0.01384


================================================================================

 ----iterations are completed or convergence reached----

 Mean square residual over all n,k,spin=   5.4818E-08; max=  5.8347E-06
 reduced coordinates (array xred) for   18 atoms
       0.000000146165     -0.255277508520      0.496340015734
      -0.000000422237     -0.223927610257      0.496325943723
      -0.000000831085     -0.204437438523     -0.003674112921
      -0.000001659276     -0.163130644029     -0.003651489922
      -0.000002058113     -0.142895145877      0.496354089729
      -0.000002836950     -0.101950743051      0.496356646881
      -0.000003155445     -0.081626993411     -0.003643853291
      -0.000003454285     -0.040763632751     -0.003635962832
      -0.000003362716     -0.020420123027      0.496367875398
      -0.000002643042      0.020425043744      0.496368918893
      -0.000002089326      0.040768538506     -0.003634504499
      -0.000000861823      0.081631836443     -0.003641564013
      -0.000000257536      0.101955551877      0.496359123546
       0.000000759895      0.142899876626      0.496356936099
       0.000001150638      0.163135407620     -0.003648676187
       0.000001592188      0.204442279803     -0.003671948087
       0.000001634069      0.223932455954      0.496328008070
       0.000001505545      0.255282366877      0.496341298381
 rms dE/dt=  2.2342E-02; max dE/dt=  8.9750E-02; dE/dt below (all hartree)
    1      -0.000001176731      0.004443230354      0.000123696484
    2       0.000002926646      0.039560541064     -0.000023886704
    3      -0.000001249035     -0.089673444405     -0.000050623601
    4      -0.000000289198      0.048913390434     -0.000001984417
    5       0.000002746217     -0.025114202089      0.000033202613
    6       0.000001022326      0.022112706711      0.000010882794
    7       0.000000524372     -0.010273162654     -0.000021912677
    8      -0.000002288209      0.012372806805     -0.000015327505
    9      -0.000003887373     -0.008856708801      0.000028220188
   10      -0.000000689592      0.008904855729      0.000029389834
   11       0.000000774640     -0.012303650325     -0.000013696890
   12       0.000001066262      0.010244211519     -0.000021170629
   13       0.000001156053     -0.022069160161      0.000011872793
   14      -0.000000256289      0.024923275382      0.000034454552
   15       0.000000480893     -0.049001402400     -0.000000715221
   16       0.000004705061      0.089749618981     -0.000051099471
   17       0.000001116579     -0.039504663391     -0.000024019571
   18      -0.000003843448     -0.004395010172      0.000122593831

 cartesian coordinates (angstrom) at end:
    1      0.00000219246877    -8.93471279820000     1.22532614140000
    2     -0.00000633355229    -7.83746635900000     1.22529140150000
    3     -0.00001246627989    -7.15531034830000    -0.00907036802590
    4     -0.00002488913803    -5.70957254100000    -0.00901451810060
    5     -0.00003087169370    -5.00133010570000     1.22536088620000
    6     -0.00004255424726    -3.56827600680000     1.22536719910000
    7     -0.00004733167752    -2.85694476940000    -0.00899566537360
    8     -0.00005181427931    -1.42672714630000    -0.00897618601250
    9     -0.00005044074150    -0.71470430595000     1.22539491920000
   10     -0.00003964562986     0.71487653105000     1.22539749530000
   11     -0.00003133988284     1.42689884770000    -0.00897258579200
   12     -0.00001292734200     2.85711427550000    -0.00899001377980
   13     -0.00000386303263     3.56844431570000     1.22537331330000
   14      0.00001139842583     5.00149568190000     1.22536791310000
   15      0.00001725956771     5.70973926670000    -0.00900757176780
   16      0.00002388282685     7.15547979310000    -0.00906502364940
   17      0.00002451103204     7.83763595840000     1.22529649780000
   18      0.00002258317563     8.93488284070000     1.22532930790000

 cartesian forces (hartree/bohr) at end:
    1      0.00000004707783    -0.00006715083543    -0.00002449169164
    2     -0.00000009768309    -0.00059810170556     0.00000714314595
    3      0.00000004962860     0.00135583199973     0.00001287426897
    4      0.00000001576702    -0.00073951069763     0.00000244833416
    5     -0.00000009131783     0.00037973829580    -0.00000509409670
    6     -0.00000003050155    -0.00033430181188    -0.00000030978578
    7     -0.00000001293451     0.00015535144379     0.00000672000808
    8      0.00000008628907    -0.00018704086776     0.00000530845945
    9      0.00000014270514     0.00013393558389    -0.00000402610098
   10      0.00000002989229    -0.00013460770576    -0.00000427681753
   11     -0.00000002176359     0.00018605109515     0.00000495893297
   12     -0.00000003205157    -0.00015485789315     0.00000656094819
   13     -0.00000003521924     0.00033369924474    -0.00000052199470
   14      0.00000001460604    -0.00037679577999    -0.00000536245301
   15     -0.00000001140062     0.00074089720956     0.00000217627865
   16     -0.00000016042286    -0.00135692788139     0.00001297627275
   17     -0.00000003382666     0.00059731269987     0.00000717162627
   18      0.00000014115554     0.00006647760601    -0.00002425533513
 frms,max,avg= 3.3785003E-04 1.3569279E-03  -5.565E-09 -2.791E-08 -2.023E-06 h/b

 cartesian forces (eV/Angstrom) at end:
    1      0.00000242083928    -0.00345303450283    -0.00125941331499
    2     -0.00000502306605    -0.03075562369847     0.00036731530261
    3      0.00000255200488     0.06971967876806     0.00066202147244
    4      0.00000081077259    -0.03802716582471     0.00012589839413
    5     -0.00000469575106     0.01952692664316    -0.00026194896218
    6     -0.00000156845288    -0.01719048889565    -0.00001592982370
    7     -0.00000066511940     0.00798849175958     0.00034555668029
    8      0.00000443716215    -0.00961802732162     0.00027297193751
    9      0.00000733819295     0.00688724405862    -0.00020703041880
   10      0.00000153712317    -0.00692180595188    -0.00021992278153
   11     -0.00000111912895     0.00956713117185     0.00025499856436
   12     -0.00000164815776    -0.00796311236735     0.00033737749222
   13     -0.00000181104614     0.01715950365020    -0.00002684204431
   14      0.00000075107246    -0.01937561640923    -0.00027574839759
   15     -0.00000058624328     0.03809846312916     0.00011190873848
   16     -0.00000824927467    -0.06977603126403     0.00066726671731
   17     -0.00000173943660     0.03071505139818     0.00036877981950
   18      0.00000725850931     0.00341841565696    -0.00124725937575
 frms,max,avg= 1.7372945E-02 6.9776031E-02  -2.861E-07 -1.435E-06 -1.040E-04 e/A
 length scales= 28.345891993000 66.140414651000  4.665210858100 bohr
              = 14.999999999849 35.000000000001  2.468723259373 angstroms
 prteigrs : about to open file zgnro_DS1_EIG
 Fermi (or HOMO) energy (hartree) =  -0.11284   Average Vxc (hartree)=  -0.05879
 Magnetization (Bohr magneton)=  4.30302124E-06
 Total spin up =  3.29999978E+01   Total spin down =  3.30000022E+01
 Eigenvalues (hartree) for nkpt=  15  k points, SPIN UP:
 kpt#   1, nband= 42, wtk=  0.06667, kpt=  0.0000  0.0000  0.0167 (reduced coord)
  -0.82197   -0.81206   -0.79701   -0.77663   -0.75095   -0.72027   -0.68549   -0.65085
  -0.57573   -0.53373   -0.48526   -0.43379   -0.38505   -0.38132   -0.37386   -0.35673
  -0.34338   -0.33492   -0.33378   -0.33041   -0.32204   -0.30550   -0.30504   -0.28605
  -0.28358   -0.27300   -0.26364   -0.24867   -0.24369   -0.23893   -0.22911   -0.22784
  -0.20989   -0.03430    0.00016    0.01026    0.01239    0.01617    0.02580    0.03391
   0.03635    0.04136
      occupation numbers for kpt#   1
   1.00000    1.00000    1.00000    1.00000    1.00000    1.00000    1.00000    1.00000
   1.00000    1.00000    1.00000    1.00000    1.00000    1.00000    1.00000    1.00000
   1.00000    1.00000    1.00000    1.00000    1.00000    1.00000    1.00000    1.00000
   1.00000    1.00000    1.00000    1.00000    1.00000    1.00000    1.00000    1.00000
   1.00000    0.00000    0.00000    0.00000    0.00000    0.00000    0.00000    0.00000
   0.00000    0.00000
 prteigrs : prtvol=0 or 1, do not print more k-points.

 Eigenvalues (hartree) for nkpt=  15  k points, SPIN DOWN:
 kpt#   1, nband= 42, wtk=  0.06667, kpt=  0.0000  0.0000  0.0167 (reduced coord)
  -0.82197   -0.81206   -0.79701   -0.77663   -0.75095   -0.72027   -0.68549   -0.65085
  -0.57573   -0.53373   -0.48526   -0.43379   -0.38505   -0.38132   -0.37386   -0.35673
  -0.34338   -0.33492   -0.33378   -0.33041   -0.32204   -0.30550   -0.30504   -0.28605
  -0.28358   -0.27300   -0.26364   -0.24867   -0.24369   -0.23893   -0.22911   -0.22784
  -0.20989   -0.03430    0.00016    0.01026    0.01239    0.01617    0.02580    0.03391
   0.03637    0.04138
      occupation numbers for kpt#   1
   1.00000    1.00000    1.00000    1.00000    1.00000    1.00000    1.00000    1.00000
   1.00000    1.00000    1.00000    1.00000    1.00000    1.00000    1.00000    1.00000
   1.00000    1.00000    1.00000    1.00000    1.00000    1.00000    1.00000    1.00000
   1.00000    1.00000    1.00000    1.00000    1.00000    1.00000    1.00000    1.00000
   1.00000    0.00000    0.00000    0.00000    0.00000    0.00000    0.00000    0.00000
   0.00000    0.00000
 prteigrs : prtvol=0 or 1, do not print more k-points.


--------------------------------------------------------------------------------
 Components of total free energy (in Hartree) :

    Kinetic energy  =  5.02580263154524E+01
    Hartree energy  =  5.69495087899690E+02
    XC energy       = -2.86083427009206E+01
    Ewald energy    =  4.96893947207394E+02
    PspCore energy  =  5.32894167913628E-01
    Loc. psp. energy= -1.19322631173388E+03
    Spherical terms =  1.15776950384884E+01
    >>>>> Internal E= -9.30770038058582E+01

    -kT*entropy     = -1.30914177301855E-03
    >>>>>>>>> Etotal= -9.30783129476312E+01

 "Double-counting" decomposition of free energy:
    Band energy     = -2.90532750633657E+01
    Ewald energy    =  4.96893947207394E+02
    PspCore energy  =  5.32894167913628E-01
    Dble-C XC-energy= -5.60855572787031E+02
    Spherical terms = -5.94994733351964E-01
    >>>>> Internal E= -9.30770012084409E+01

    -kT*entropy     = -1.30914177301855E-03
    >>>> Etotal (DC)= -9.30783103502140E+01

  >Total energy in eV           = -2.53278970265920E+03
  >Total DC energy in eV        = -2.53278963197988E+03
--------------------------------------------------------------------------------

 Cartesian components of stress tensor (hartree/bohr^3)
  sigma(1 1)=  2.41203985E-07  sigma(3 2)=  4.24661621E-10
  sigma(2 2)=  8.03212588E-07  sigma(3 1)=  2.53898293E-12
  sigma(3 3)= -3.00072465E-07  sigma(2 1)=  1.55170083E-12

-Cartesian components of stress tensor (GPa)         [Pressure= -7.2998E-03 GPa]
- sigma(1 1)=  7.09646506E-03  sigma(3 2)=  1.24939742E-05
- sigma(2 2)=  2.36313262E-02  sigma(3 1)=  7.46994441E-08
- sigma(3 3)= -8.82843523E-03  sigma(2 1)=  4.56526069E-08

================================================================================
== DATASET  2 ==================================================================
-   nproc =    1

 mkfilename : getden/=0, take file _DEN from output of DATASET   1.

 Exchange-correlation functional for the present dataset will be:
  GGA: Perdew-Burke-Ernzerhof functional - ixc=11
 Citation for XC functional:
  J.P.Perdew, K.Burke, M.Ernzerhof, PRL 77, 3865 (1996)

 Real(R)+Recip(G) space primitive vectors, cartesian coordinates (Bohr,Bohr^-1):
 R(1)= 28.3458920  0.0000000  0.0000000  G(1)=  0.0352785  0.0000000  0.0000000
 R(2)=  0.0000000 66.1404147  0.0000000  G(2)=  0.0000000  0.0151193  0.0000000
 R(3)=  0.0000000  0.0000000  4.6652109  G(3)=  0.0000000  0.0000000  0.2143526
 Unit cell volume ucvol=  8.7463795E+03 bohr^3
 Angles (23,13,12)=  9.00000000E+01  9.00000000E+01  9.00000000E+01 degrees

 Coarse grid specifications (used for wave-functions):

 getcut: wavevector=  0.0000  0.0000  0.0000  ngfft=  96 225  16
         ecut(hartree)=     14.000   => boxcut(ratio)=   2.01072

 Fine grid specifications (used for densities):

 getcut: wavevector=  0.0000  0.0000  0.0000  ngfft= 162 384  30
         ecut(hartree)=     40.000   => boxcut(ratio)=   2.00738
--------------------------------------------------------------------------------


================================================================================
 prteigrs : about to open file zgnro_DS2_EIG

 SPIN UP channel
 Non-SCF case, kpt    1 (  0.00000  0.00000  0.00000), residuals and eigenvalues=
  7.80E-13  4.76E-13  6.26E-13  6.00E-13  4.39E-13  4.00E-13  8.25E-13  3.89E-13
  3.24E-13  5.68E-13  3.71E-13  4.62E-13  6.31E-13  3.80E-13  2.50E-13  2.19E-13
  3.73E-13  5.94E-13  6.09E-13  3.26E-13  3.29E-13  3.95E-13  3.79E-13  5.57E-13
  5.84E-13  9.20E-13  1.06E-13  7.26E-13  5.51E-13  8.51E-13  6.57E-13  7.54E-13
  9.01E-13  5.36E-13  8.06E-13  2.60E-13  5.19E-13  5.23E-13  7.99E-12  1.05E-05
 -8.2215E-01 -8.1224E-01 -7.9719E-01 -7.7681E-01 -7.5113E-01 -7.2044E-01
 -6.8566E-01 -6.5101E-01 -5.7589E-01 -5.3387E-01 -4.8537E-01 -4.3387E-01
 -3.8527E-01 -3.8134E-01 -3.7407E-01 -3.5694E-01 -3.4257E-01 -3.3409E-01
 -3.3400E-01 -3.3036E-01 -3.2125E-01 -3.0571E-01 -3.0430E-01 -2.8453E-01
 -2.8421E-01 -2.7321E-01 -2.6280E-01 -2.4852E-01 -2.4292E-01 -2.3914E-01
 -2.2840E-01 -2.2756E-01 -2.1011E-01 -3.4259E-02  1.8172E-04  9.9561E-03
  1.2137E-02  1.5933E-02  2.5468E-02  3.4038E-02
  prteigrs : nnsclo,ikpt=   80    1 max resid (incl. the buffer)=  1.04593E-05
 Non-SCF case, kpt    2 (  0.00000  0.00000  0.03333), residuals and eigenvalues=
  5.07E-13  6.19E-13  3.45E-13  6.44E-13  2.24E-13  6.11E-13  8.02E-13  2.84E-13
  8.76E-13  2.32E-13  1.56E-13  2.63E-13  5.78E-13  1.39E-13  5.54E-13  5.32E-13
  2.83E-13  5.30E-13  3.33E-13  1.97E-13  3.98E-13  2.45E-13  5.28E-13  3.68E-13
  5.01E-13  5.97E-13  8.82E-13  2.26E-13  3.68E-13  7.72E-13  7.36E-13  4.50E-13
  4.30E-13  4.15E-13  6.10E-13  9.81E-13  2.99E-13  5.94E-13  8.57E-13  5.10E-06
 -8.2143E-01 -8.1153E-01 -7.9647E-01 -7.7610E-01 -7.5043E-01 -7.1975E-01
 -6.8499E-01 -6.5037E-01 -5.7529E-01 -5.3332E-01 -4.8491E-01 -4.3355E-01
 -3.8440E-01 -3.8127E-01 -3.7321E-01 -3.5609E-01 -3.4580E-01 -3.3736E-01
 -3.3315E-01 -3.3064E-01 -3.2439E-01 -3.0724E-01 -3.0487E-01 -2.8882E-01
 -2.8348E-01 -2.7238E-01 -2.6608E-01 -2.4915E-01 -2.4593E-01 -2.3830E-01
 -2.3123E-01 -2.2872E-01 -2.0924E-01 -3.4447E-02  7.4205E-05  1.0898E-02
  1.3036E-02  1.6843E-02  2.6407E-02  3.4425E-02
  prteigrs : nnsclo,ikpt=   80    2 max resid (incl. the buffer)=  5.10032E-06
 Non-SCF case, kpt    3 (  0.00000  0.00000  0.06667), residuals and eigenvalues=
  5.59E-13  8.61E-13  3.08E-13  9.64E-13  8.29E-13  5.43E-13  1.57E-13  4.59E-13
  7.78E-13  1.80E-13  8.10E-14  1.24E-13  1.27E-13  1.85E-13  4.70E-13  1.71E-13
  2.24E-13  2.09E-13  3.86E-13  7.41E-13  8.32E-13  4.42E-13  4.70E-13  2.42E-13
  8.04E-13  3.73E-13  2.95E-13  5.42E-13  9.26E-13  2.29E-13  2.70E-13  2.14E-13
  9.05E-13  7.33E-13  9.67E-13  9.40E-13  4.05E-13  3.97E-13  7.84E-13  8.48E-07
 -8.1927E-01 -8.0937E-01 -7.9433E-01 -7.7398E-01 -7.4833E-01 -7.1769E-01
 -6.8299E-01 -6.4846E-01 -5.7350E-01 -5.3168E-01 -4.8355E-01 -4.3264E-01
 -3.8182E-01 -3.8114E-01 -3.7064E-01 -3.5511E-01 -3.5353E-01 -3.4664E-01
 -3.3341E-01 -3.3211E-01 -3.3062E-01 -3.1531E-01 -3.0237E-01 -2.9800E-01
 -2.8481E-01 -2.7503E-01 -2.6989E-01 -2.5423E-01 -2.5179E-01 -2.3904E-01
 -2.3579E-01 -2.3233E-01 -2.0666E-01 -3.5080E-02 -3.4823E-04  1.3712E-02
  1.5720E-02  1.9574E-02  2.9222E-02  3.5761E-02
  prteigrs : nnsclo,ikpt=   80    3 max resid (incl. the buffer)=  8.48310E-07
 Non-SCF case, kpt    4 (  0.00000  0.00000  0.10000), residuals and eigenvalues=
  7.88E-13  4.14E-13  3.36E-13  3.43E-13  5.32E-13  6.57E-13  9.52E-13  8.59E-13
  5.22E-13  1.26E-13  1.52E-13  1.63E-13  1.40E-13  2.53E-13  8.89E-13  1.70E-13
  1.10E-13  5.25E-13  2.70E-13  6.49E-13  2.20E-13  5.93E-13  3.75E-13  2.26E-13
  4.63E-13  3.68E-13  2.83E-13  9.56E-13  7.84E-13  1.55E-13  2.62E-13  1.67E-13
  2.83E-13  2.65E-13  4.91E-13  8.80E-13  6.28E-13  3.50E-13  4.78E-13  7.09E-07
 -8.1567E-01 -8.0578E-01 -7.9076E-01 -7.7044E-01 -7.4484E-01 -7.1427E-01
 -6.7967E-01 -6.4526E-01 -5.7056E-01 -5.2902E-01 -4.8139E-01 -4.3133E-01
 -3.8148E-01 -3.7752E-01 -3.6950E-01 -3.6636E-01 -3.6091E-01 -3.4928E-01
 -3.4711E-01 -3.3764E-01 -3.2641E-01 -3.2518E-01 -3.1145E-01 -2.9820E-01
 -2.8877E-01 -2.8787E-01 -2.6575E-01 -2.6574E-01 -2.5907E-01 -2.4874E-01
 -2.3852E-01 -2.3162E-01 -2.0235E-01 -3.6360E-02 -1.3730E-03  1.8360E-02
  2.0155E-02  2.4128E-02  3.3908E-02  3.7282E-02
  prteigrs : nnsclo,ikpt=   80    4 max resid (incl. the buffer)=  7.08799E-07
 Non-SCF case, kpt    5 (  0.00000  0.00000  0.13333), residuals and eigenvalues=
  4.94E-13  6.40E-13  6.58E-13  3.37E-13  2.93E-13  2.37E-13  2.82E-13  2.26E-13
  3.93E-13  1.10E-13  1.78E-13  9.99E-14  2.20E-13  1.41E-13  2.99E-13  3.00E-13
  3.61E-13  8.69E-13  3.08E-13  2.08E-13  5.39E-13  8.04E-13  7.77E-13  4.61E-13
  1.53E-13  4.49E-13  3.48E-13  2.82E-13  3.12E-13  9.18E-13  6.94E-13  4.91E-13
  6.81E-13  2.02E-13  3.41E-13  3.72E-13  6.45E-13  6.03E-13  2.50E-07  3.19E-11
 -8.1063E-01 -8.0076E-01 -7.8577E-01 -7.6549E-01 -7.3996E-01 -7.0948E-01
 -6.7502E-01 -6.4080E-01 -5.6656E-01 -5.2544E-01 -4.7861E-01 -4.3004E-01
 -3.8831E-01 -3.8318E-01 -3.7884E-01 -3.7153E-01 -3.6340E-01 -3.6039E-01
 -3.5137E-01 -3.4336E-01 -3.3289E-01 -3.2741E-01 -3.2055E-01 -3.0177E-01
 -2.9827E-01 -2.9241E-01 -2.7622E-01 -2.7390E-01 -2.6000E-01 -2.5636E-01
 -2.4717E-01 -2.2582E-01 -1.9636E-01 -3.8616E-02 -3.4439E-03  2.4764E-02
  2.6286E-02  3.0527E-02  3.7481E-02  4.0470E-02
  prteigrs : nnsclo,ikpt=   80    5 max resid (incl. the buffer)=  2.49919E-07
 Non-SCF case, kpt    6 (  0.00000  0.00000  0.16667), residuals and eigenvalues=
  9.49E-13  3.76E-13  7.23E-13  2.81E-13  3.30E-13  3.41E-13  5.73E-13  6.81E-13
  1.24E-13  3.00E-13  1.62E-13  1.24E-13  1.45E-13  4.07E-13  1.44E-13  3.34E-13
  4.69E-13  1.87E-13  8.19E-13  1.56E-13  4.39E-13  2.14E-13  7.15E-13  5.74E-13
  2.57E-13  8.23E-13  4.45E-13  3.07E-13  7.12E-13  3.20E-13  2.28E-13  8.70E-13
  2.38E-13  8.91E-13  3.90E-13  5.02E-13  4.22E-13  9.33E-13  6.47E-13  7.36E-13
 -8.0417E-01 -7.9432E-01 -7.7937E-01 -7.5915E-01 -7.3370E-01 -7.0335E-01
 -6.6906E-01 -6.3507E-01 -5.6165E-01 -5.2118E-01 -4.7568E-01 -4.2999E-01
 -4.0888E-01 -3.9884E-01 -3.9253E-01 -3.7801E-01 -3.6885E-01 -3.6385E-01
 -3.5275E-01 -3.4454E-01 -3.4259E-01 -3.3578E-01 -3.1500E-01 -3.1306E-01
 -3.1197E-01 -2.9307E-01 -2.8503E-01 -2.8299E-01 -2.6397E-01 -2.5807E-01
 -2.5270E-01 -2.1846E-01 -1.8870E-01 -4.2274E-02 -7.0975E-03  3.2795E-02
  3.4041E-02  3.4914E-02  3.8826E-02  4.8922E-02
 Non-SCF case, kpt    7 (  0.00000  0.00000  0.20000), residuals and eigenvalues=
  3.09E-13  2.45E-13  8.68E-13  9.74E-13  1.89E-13  3.37E-13  3.41E-13  3.40E-13
  2.89E-13  1.68E-13  1.63E-13  6.22E-13  2.80E-13  3.85E-13  5.35E-13  5.12E-13
  3.38E-13  5.33E-13  2.96E-13  6.92E-13  2.56E-13  1.47E-13  2.49E-13  9.66E-13
  2.40E-13  8.57E-13  6.52E-13  7.42E-13  4.12E-13  3.50E-13  8.02E-13  8.12E-13
  7.02E-13  3.86E-13  4.20E-13  7.39E-13  5.70E-13  6.73E-13  1.13E-11  6.25E-09
 -7.9629E-01 -7.8647E-01 -7.7156E-01 -7.5141E-01 -7.2607E-01 -6.9588E-01
 -6.6181E-01 -6.2809E-01 -5.5616E-01 -5.1675E-01 -4.7380E-01 -4.3464E-01
 -4.3084E-01 -4.1862E-01 -4.0939E-01 -3.9216E-01 -3.8458E-01 -3.6267E-01
 -3.5452E-01 -3.5215E-01 -3.4347E-01 -3.3551E-01 -3.2660E-01 -3.1769E-01
 -3.1355E-01 -3.0401E-01 -2.8844E-01 -2.7612E-01 -2.7285E-01 -2.7091E-01
 -2.4391E-01 -2.0960E-01 -1.7941E-01 -4.7802E-02 -1.2861E-02  2.8861E-02
  4.2269E-02  4.3326E-02  4.9106E-02  5.9289E-02
  prteigrs : nnsclo,ikpt=   80    7 max resid (incl. the buffer)=  6.25296E-09
 Non-SCF case, kpt    8 (  0.00000  0.00000  0.23333), residuals and eigenvalues=
  7.69E-13  9.24E-13  5.00E-13  8.42E-13  2.33E-13  3.05E-13  7.57E-13  3.26E-13
  8.93E-13  4.04E-13  2.38E-13  3.22E-13  9.22E-13  1.35E-13  2.82E-13  4.24E-13
  4.26E-13  1.71E-13  3.34E-13  6.20E-13  6.21E-13  1.79E-13  5.89E-13  5.84E-13
  1.66E-13  2.32E-13  7.76E-13  2.88E-13  7.29E-13  2.32E-13  6.44E-13  4.99E-13
  4.05E-13  5.58E-13  8.83E-13  6.08E-13  6.83E-13  4.09E-13  1.39E-06  2.15E-11
 -7.8701E-01 -7.7721E-01 -7.6236E-01 -7.4230E-01 -7.1709E-01 -6.8709E-01
 -6.5330E-01 -6.1988E-01 -5.5078E-01 -5.1350E-01 -4.7610E-01 -4.5240E-01
 -4.4810E-01 -4.3649E-01 -4.2521E-01 -4.1087E-01 -3.9400E-01 -3.8318E-01
 -3.6052E-01 -3.5234E-01 -3.4358E-01 -3.3720E-01 -3.3260E-01 -3.1895E-01
 -3.1585E-01 -2.9432E-01 -2.9345E-01 -2.8529E-01 -2.8310E-01 -2.6578E-01
 -2.3376E-01 -1.9940E-01 -1.6860E-01 -5.5603E-02 -2.1098E-02  1.9251E-02
  5.3007E-02  5.4008E-02  5.9677E-02  6.1436E-02
  prteigrs : nnsclo,ikpt=   80    8 max resid (incl. the buffer)=  1.38966E-06
 Non-SCF case, kpt    9 (  0.00000  0.00000  0.26667), residuals and eigenvalues=
  9.69E-13  3.35E-13  3.98E-13  3.63E-13  4.53E-13  1.68E-13  2.81E-13  6.07E-13
  9.47E-14  7.94E-13  4.49E-13  3.12E-13  6.88E-13  7.72E-13  3.20E-13  8.41E-13
  2.69E-13  1.91E-13  6.60E-13  7.54E-13  2.37E-13  9.09E-13  3.26E-13  5.57E-13
  7.08E-13  2.67E-13  6.07E-13  2.25E-13  3.46E-13  5.51E-13  8.93E-13  4.10E-13
  8.06E-13  8.93E-13  8.24E-13  8.82E-13  9.85E-13  8.94E-13  1.88E-12  4.24E-09
 -7.7633E-01 -7.6658E-01 -7.5179E-01 -7.3183E-01 -7.0678E-01 -6.7702E-01
 -6.4357E-01 -6.1046E-01 -5.4727E-01 -5.1479E-01 -4.8707E-01 -4.7144E-01
 -4.6475E-01 -4.5364E-01 -4.3848E-01 -4.2653E-01 -4.1001E-01 -3.9079E-01
 -3.8258E-01 -3.6004E-01 -3.5296E-01 -3.3107E-01 -3.2098E-01 -3.2019E-01
 -3.0362E-01 -3.0321E-01 -2.9875E-01 -2.9468E-01 -2.8148E-01 -2.5415E-01
 -2.2244E-01 -1.8810E-01 -1.5639E-01 -6.5859E-02 -3.1825E-02  6.4577E-03
  4.4659E-02  6.4865E-02  6.5912E-02  7.5831E-02
  prteigrs : nnsclo,ikpt=   80    9 max resid (incl. the buffer)=  4.23978E-09
 Non-SCF case, kpt   10 (  0.00000  0.00000  0.30000), residuals and eigenvalues=
  5.64E-13  3.07E-13  4.81E-13  6.82E-13  7.54E-13  5.45E-13  6.49E-13  3.02E-13
  8.30E-13  3.33E-13  3.20E-13  3.87E-13  3.50E-13  2.02E-13  3.73E-13  1.94E-13
  2.45E-13  6.28E-13  5.45E-13  1.94E-13  4.88E-13  7.28E-13  6.09E-13  1.19E-13
  9.23E-13  2.77E-13  9.50E-14  2.21E-13  5.89E-13  2.48E-13  8.47E-13  3.46E-13
  5.32E-13  5.37E-13  2.95E-13  3.59E-13  7.93E-13  5.98E-13  3.36E-11  3.34E-12
 -7.6429E-01 -7.5458E-01 -7.3987E-01 -7.2004E-01 -6.9519E-01 -6.6574E-01
 -6.3274E-01 -5.9991E-01 -5.4939E-01 -5.2510E-01 -5.0517E-01 -4.8437E-01
 -4.8420E-01 -4.6119E-01 -4.5984E-01 -4.3314E-01 -4.2672E-01 -4.0587E-01
 -3.8798E-01 -3.8276E-01 -3.5119E-01 -3.2325E-01 -3.1909E-01 -3.1705E-01
 -3.0762E-01 -3.0683E-01 -3.0632E-01 -2.9001E-01 -2.6826E-01 -2.4145E-01
 -2.1030E-01 -1.7619E-01 -1.4311E-01 -7.8334E-02 -4.4482E-02 -8.7038E-03
  2.6467E-02  6.0456E-02  7.7705E-02  7.8848E-02
  prteigrs : nnsclo,ikpt=   80   10 max resid (incl. the buffer)=  3.35654E-11
 Non-SCF case, kpt   11 (  0.00000  0.00000  0.33333), residuals and eigenvalues=
  7.39E-13  4.64E-13  8.14E-13  3.15E-13  9.69E-13  2.91E-13  4.74E-13  1.85E-13
  3.88E-13  5.39E-13  2.41E-13  2.19E-13  5.25E-13  1.67E-13  3.66E-13  3.33E-13
  5.22E-13  5.87E-13  7.84E-13  3.38E-13  2.93E-13  5.15E-13  6.52E-13  5.10E-13
  6.40E-13  2.09E-13  2.00E-13  3.85E-13  6.63E-13  4.36E-13  1.33E-13  5.00E-13
  2.92E-13  2.44E-13  6.86E-13  4.69E-13  3.86E-13  6.34E-13  1.15E-07  1.78E-06
 -7.5090E-01 -7.4124E-01 -7.2662E-01 -7.0695E-01 -6.8237E-01 -6.5336E-01
 -6.2109E-01 -5.8846E-01 -5.6031E-01 -5.4260E-01 -5.2647E-01 -5.0687E-01
 -4.8736E-01 -4.8230E-01 -4.5971E-01 -4.5472E-01 -4.2985E-01 -4.1999E-01
 -4.0583E-01 -3.8230E-01 -3.4892E-01 -3.3655E-01 -3.2709E-01 -3.1984E-01
 -3.1556E-01 -3.0161E-01 -2.9108E-01 -2.7516E-01 -2.5401E-01 -2.2804E-01
 -1.9797E-01 -1.6480E-01 -1.2964E-01 -9.1971E-02 -5.7575E-02 -2.4929E-02
  6.8334E-03  3.8086E-02  6.8185E-02  9.2383E-02
  prteigrs : nnsclo,ikpt=   80   11 max resid (incl. the buffer)=  1.77855E-06
 Non-SCF case, kpt   12 (  0.00000  0.00000  0.36667), residuals and eigenvalues=
  3.53E-13  8.38E-13  3.12E-13  8.90E-13  4.90E-13  7.93E-13  3.55E-13  1.18E-13
  1.26E-13  5.32E-13  2.61E-13  4.74E-13  3.12E-13  5.18E-13  4.53E-13  2.94E-13
  5.95E-13  1.57E-13  6.25E-13  4.42E-13  7.08E-13  8.68E-13  2.96E-13  7.85E-13
  4.10E-13  2.07E-13  2.08E-13  2.78E-13  9.80E-13  8.05E-13  6.27E-13  6.69E-13
  9.74E-13  7.74E-13  3.35E-13  3.53E-13  9.48E-13  7.47E-13  7.11E-10  1.21E-07
 -7.3620E-01 -7.2660E-01 -7.1211E-01 -6.9265E-01 -6.6844E-01 -6.4021E-01
 -6.0994E-01 -5.7876E-01 -5.7578E-01 -5.6049E-01 -5.4844E-01 -5.2977E-01
 -5.0692E-01 -4.8047E-01 -4.7971E-01 -4.5232E-01 -4.4870E-01 -4.2798E-01
 -4.1191E-01 -3.7604E-01 -3.5454E-01 -3.4668E-01 -3.3763E-01 -3.2707E-01
 -3.2466E-01 -2.8484E-01 -2.7463E-01 -2.5929E-01 -2.3909E-01 -2.1459E-01
 -1.8672E-01 -1.5680E-01 -1.1953E-01 -1.0304E-01 -6.7535E-02 -4.0182E-02
 -1.2687E-02  1.5482E-02  4.3520E-02  6.9002E-02
  prteigrs : nnsclo,ikpt=   80   12 max resid (incl. the buffer)=  1.21097E-07
 Non-SCF case, kpt   13 (  0.00000  0.00000  0.40000), residuals and eigenvalues=
  8.44E-13  3.61E-13  2.59E-13  6.87E-13  3.43E-13  6.43E-13  1.60E-13  2.09E-13
  1.68E-13  4.41E-13  1.09E-13  4.08E-13  9.27E-13  9.93E-14  5.76E-13  6.12E-13
  3.88E-13  6.84E-13  2.05E-13  5.52E-13  5.18E-13  9.04E-13  1.85E-13  1.93E-13
  4.13E-13  2.48E-13  6.86E-13  5.93E-13  1.62E-13  3.80E-13  7.83E-13  3.09E-13
  3.62E-13  3.76E-13  3.88E-13  4.74E-13  5.71E-13  9.72E-13  1.03E-10  1.83E-07
 -7.2023E-01 -7.1071E-01 -6.9638E-01 -6.7724E-01 -6.5373E-01 -6.2760E-01
 -6.0878E-01 -5.8785E-01 -5.8426E-01 -5.6823E-01 -5.5869E-01 -5.5113E-01
 -5.2948E-01 -5.0292E-01 -4.7478E-01 -4.6872E-01 -4.4966E-01 -4.3757E-01
 -4.0222E-01 -3.7259E-01 -3.6930E-01 -3.5206E-01 -3.4527E-01 -3.3433E-01
 -3.3126E-01 -2.6689E-01 -2.5716E-01 -2.4275E-01 -2.2415E-01 -2.0232E-01
 -1.7910E-01 -1.5808E-01 -1.2059E-01 -1.0406E-01 -6.7245E-02 -5.1041E-02
 -3.0155E-02 -6.0669E-03  1.9426E-02  4.3340E-02
  prteigrs : nnsclo,ikpt=   80   13 max resid (incl. the buffer)=  1.83193E-07
 Non-SCF case, kpt   14 (  0.00000  0.00000  0.43333), residuals and eigenvalues=
  3.46E-13  2.81E-13  7.64E-13  4.45E-13  9.18E-13  3.84E-13  5.09E-13  4.39E-13
  1.75E-13  1.52E-13  8.22E-13  1.30E-13  5.56E-13  8.61E-13  7.38E-13  2.42E-13
  8.33E-13  2.49E-13  4.61E-13  3.28E-13  1.31E-13  8.17E-13  4.29E-13  3.48E-13
  3.60E-13  4.98E-13  8.78E-13  3.57E-13  5.14E-13  2.63E-13  4.40E-13  4.28E-13
  2.79E-13  2.82E-13  6.73E-13  8.00E-13  2.72E-13  6.09E-13  5.84E-10  1.46E-06
 -7.0305E-01 -6.9365E-01 -6.7958E-01 -6.6103E-01 -6.3942E-01 -6.2543E-01
 -6.2368E-01 -5.9718E-01 -5.9275E-01 -5.7310E-01 -5.6882E-01 -5.5078E-01
 -5.4288E-01 -5.2446E-01 -4.9584E-01 -4.7029E-01 -4.5573E-01 -4.2508E-01
 -3.9182E-01 -3.9037E-01 -3.6718E-01 -3.6240E-01 -3.4847E-01 -3.4018E-01
 -3.3603E-01 -2.4793E-01 -2.3899E-01 -2.2614E-01 -2.1035E-01 -1.9355E-01
 -1.7900E-01 -1.7052E-01 -1.2441E-01 -1.0312E-01 -5.4778E-02 -5.2740E-02
 -4.2525E-02 -2.4918E-02 -3.1475E-03  1.8616E-02
  prteigrs : nnsclo,ikpt=   80   14 max resid (incl. the buffer)=  1.45889E-06
 Non-SCF case, kpt   15 (  0.00000  0.00000  0.46667), residuals and eigenvalues=
  4.97E-13  7.52E-13  2.66E-13  9.68E-13  5.03E-13  3.37E-13  5.72E-13  3.30E-13
  1.43E-13  8.40E-13  7.14E-13  4.55E-13  6.20E-13  3.66E-13  2.91E-13  4.41E-13
  5.07E-13  3.58E-13  7.09E-13  1.80E-13  3.24E-13  4.74E-13  5.63E-13  3.62E-13
  1.88E-13  6.86E-13  9.99E-13  4.08E-13  5.26E-13  5.07E-13  7.06E-13  3.04E-13
  7.19E-13  3.30E-13  9.85E-13  6.64E-13  7.91E-13  7.63E-13  2.19E-11  3.77E-08
 -6.8476E-01 -6.7555E-01 -6.6198E-01 -6.4549E-01 -6.4510E-01 -6.3781E-01
 -6.3269E-01 -6.0428E-01 -5.9699E-01 -5.7988E-01 -5.7196E-01 -5.5276E-01
 -5.4521E-01 -5.2632E-01 -5.1608E-01 -4.9004E-01 -4.4091E-01 -4.1148E-01
 -4.0801E-01 -3.8224E-01 -3.8064E-01 -3.5834E-01 -3.5597E-01 -3.4157E-01
 -3.3994E-01 -2.2823E-01 -2.2063E-01 -2.1054E-01 -1.9986E-01 -1.9162E-01
 -1.8841E-01 -1.8793E-01 -1.2696E-01 -1.0290E-01 -4.6972E-02 -4.4971E-02
 -3.7341E-02 -3.5464E-02 -2.2665E-02 -4.5231E-03
  prteigrs : nnsclo,ikpt=   80   15 max resid (incl. the buffer)=  3.77402E-08
 Non-SCF case, kpt   16 (  0.00000  0.00000  0.50000), residuals and eigenvalues=
  2.45E-13  3.99E-13  2.72E-13  5.37E-13  5.96E-13  4.58E-13  2.97E-13  4.69E-13
  4.54E-13  2.35E-13  5.72E-13  5.19E-13  2.12E-13  4.37E-13  3.41E-13  4.82E-13
  1.68E-13  6.98E-13  4.21E-13  2.27E-13  7.84E-13  4.89E-13  7.00E-13  9.42E-13
  7.32E-13  4.69E-13  3.83E-13  8.20E-13  7.84E-13  9.78E-13  6.50E-13  2.36E-13
  7.31E-13  2.78E-13  7.59E-13  6.84E-13  9.13E-13  9.37E-13  1.94E-11  4.10E-06
 -6.6551E-01 -6.6545E-01 -6.5686E-01 -6.5650E-01 -6.4511E-01 -6.4390E-01
 -6.3570E-01 -6.0693E-01 -5.9768E-01 -5.8463E-01 -5.6778E-01 -5.6106E-01
 -5.3741E-01 -5.3318E-01 -5.0972E-01 -5.0785E-01 -4.2546E-01 -4.2433E-01
 -3.9771E-01 -3.9649E-01 -3.6989E-01 -3.6895E-01 -3.5203E-01 -3.4482E-01
 -3.3998E-01 -2.0824E-01 -2.0817E-01 -2.0314E-01 -2.0297E-01 -1.9840E-01
 -1.9756E-01 -1.9552E-01 -1.2785E-01 -1.0289E-01 -4.5523E-02 -4.2921E-02
 -3.5210E-02 -2.8045E-02 -2.2676E-02 -1.3882E-02
  prteigrs : nnsclo,ikpt=   80   16 max resid (incl. the buffer)=  4.09579E-06

 SPIN DOWN channel
 Non-SCF case, kpt    1 (  0.00000  0.00000  0.00000), residuals and eigenvalues=
  4.11E-13  4.78E-13  5.74E-13  5.17E-13  4.25E-13  4.89E-13  6.54E-13  3.27E-13
  5.58E-13  2.75E-13  3.24E-13  1.54E-13  1.52E-13  5.17E-13  4.29E-13  4.16E-13
  1.96E-13  5.63E-13  6.58E-13  9.66E-13  5.61E-13  3.89E-13  7.63E-13  4.02E-13
  3.66E-13  2.62E-13  7.42E-13  5.90E-13  3.76E-13  8.96E-13  8.30E-13  6.85E-13
  6.53E-13  3.35E-13  6.70E-13  7.66E-13  7.75E-13  3.79E-13  4.76E-11  1.12E-05
 -8.2215E-01 -8.1224E-01 -7.9719E-01 -7.7681E-01 -7.5113E-01 -7.2044E-01
 -6.8566E-01 -6.5101E-01 -5.7589E-01 -5.3387E-01 -4.8537E-01 -4.3387E-01
 -3.8527E-01 -3.8134E-01 -3.7407E-01 -3.5694E-01 -3.4257E-01 -3.3409E-01
 -3.3400E-01 -3.3036E-01 -3.2125E-01 -3.0571E-01 -3.0430E-01 -2.8453E-01
 -2.8421E-01 -2.7321E-01 -2.6280E-01 -2.4852E-01 -2.4292E-01 -2.3914E-01
 -2.2840E-01 -2.2756E-01 -2.1011E-01 -3.4259E-02  1.8162E-04  9.9559E-03
  1.2137E-02  1.5933E-02  2.5468E-02  3.4076E-02
  prteigrs : nnsclo,ikpt=   80    1 max resid (incl. the buffer)=  1.11796E-05
 Non-SCF case, kpt    2 (  0.00000  0.00000  0.03333), residuals and eigenvalues=
  5.08E-13  6.15E-13  3.21E-13  6.49E-13  2.37E-13  6.10E-13  8.43E-13  2.81E-13
  8.38E-13  2.45E-13  1.61E-13  2.55E-13  4.54E-13  8.75E-13  6.27E-13  4.59E-13
  2.74E-13  5.35E-13  2.83E-13  1.78E-13  4.30E-13  2.30E-13  5.03E-13  3.56E-13
  4.43E-13  7.55E-13  8.73E-13  2.28E-13  4.00E-13  6.66E-13  7.43E-13  4.47E-13
  4.11E-13  4.84E-13  6.42E-13  5.49E-13  3.77E-13  9.51E-13  6.61E-13  5.48E-06
 -8.2143E-01 -8.1153E-01 -7.9647E-01 -7.7610E-01 -7.5043E-01 -7.1975E-01
 -6.8499E-01 -6.5037E-01 -5.7529E-01 -5.3332E-01 -4.8491E-01 -4.3355E-01
 -3.8440E-01 -3.8127E-01 -3.7321E-01 -3.5609E-01 -3.4580E-01 -3.3736E-01
 -3.3315E-01 -3.3064E-01 -3.2439E-01 -3.0724E-01 -3.0487E-01 -2.8882E-01
 -2.8348E-01 -2.7238E-01 -2.6608E-01 -2.4915E-01 -2.4593E-01 -2.3830E-01
 -2.3123E-01 -2.2872E-01 -2.0924E-01 -3.4447E-02  7.4097E-05  1.0898E-02
  1.3036E-02  1.6843E-02  2.6407E-02  3.4434E-02
  prteigrs : nnsclo,ikpt=   80    2 max resid (incl. the buffer)=  5.48399E-06
 Non-SCF case, kpt    3 (  0.00000  0.00000  0.06667), residuals and eigenvalues=
  5.60E-13  8.69E-13  2.99E-13  9.75E-13  7.99E-13  5.54E-13  1.57E-13  4.45E-13
  7.81E-13  1.90E-13  8.27E-14  1.18E-13  1.21E-13  1.86E-13  5.81E-13  1.68E-13
  2.19E-13  2.00E-13  4.11E-13  6.61E-13  6.42E-13  4.41E-13  5.35E-13  2.39E-13
  8.28E-13  3.71E-13  2.31E-13  5.43E-13  9.51E-13  2.29E-13  3.39E-13  2.23E-13
  8.77E-13  8.88E-13  3.70E-13  9.66E-13  4.64E-13  3.59E-13  6.76E-13  8.86E-07
 -8.1927E-01 -8.0937E-01 -7.9433E-01 -7.7398E-01 -7.4833E-01 -7.1769E-01
 -6.8299E-01 -6.4846E-01 -5.7350E-01 -5.3168E-01 -4.8355E-01 -4.3264E-01
 -3.8182E-01 -3.8114E-01 -3.7064E-01 -3.5511E-01 -3.5353E-01 -3.4664E-01
 -3.3341E-01 -3.3211E-01 -3.3062E-01 -3.1531E-01 -3.0237E-01 -2.9800E-01
 -2.8481E-01 -2.7503E-01 -2.6989E-01 -2.5423E-01 -2.5179E-01 -2.3904E-01
 -2.3579E-01 -2.3233E-01 -2.0666E-01 -3.5080E-02 -3.4834E-04  1.3712E-02
  1.5720E-02  1.9574E-02  2.9222E-02  3.5762E-02
  prteigrs : nnsclo,ikpt=   80    3 max resid (incl. the buffer)=  8.85539E-07
 Non-SCF case, kpt    4 (  0.00000  0.00000  0.10000), residuals and eigenvalues=
  7.89E-13  4.00E-13  3.44E-13  3.34E-13  5.43E-13  6.47E-13  9.59E-13  8.43E-13
  5.33E-13  1.18E-13  1.54E-13  1.49E-13  1.29E-13  2.18E-13  7.65E-13  2.70E-13
  1.06E-13  6.78E-13  2.49E-13  6.04E-13  1.94E-13  5.25E-13  3.38E-13  2.45E-13
  3.41E-13  3.91E-13  3.97E-13  1.15E-13  7.86E-13  1.65E-13  2.72E-13  1.43E-13
  8.84E-13  9.16E-13  5.95E-13  5.34E-13  8.74E-13  6.94E-13  8.45E-13  6.66E-07
 -8.1567E-01 -8.0578E-01 -7.9076E-01 -7.7044E-01 -7.4484E-01 -7.1427E-01
 -6.7967E-01 -6.4526E-01 -5.7056E-01 -5.2902E-01 -4.8139E-01 -4.3133E-01
 -3.8148E-01 -3.7752E-01 -3.6950E-01 -3.6636E-01 -3.6091E-01 -3.4928E-01
 -3.4711E-01 -3.3764E-01 -3.2641E-01 -3.2518E-01 -3.1145E-01 -2.9820E-01
 -2.8877E-01 -2.8787E-01 -2.6575E-01 -2.6574E-01 -2.5907E-01 -2.4874E-01
 -2.3852E-01 -2.3162E-01 -2.0235E-01 -3.6361E-02 -1.3731E-03  1.8360E-02
  2.0155E-02  2.4128E-02  3.3908E-02  3.7282E-02
  prteigrs : nnsclo,ikpt=   80    4 max resid (incl. the buffer)=  6.65682E-07
 Non-SCF case, kpt    5 (  0.00000  0.00000  0.13333), residuals and eigenvalues=
  4.94E-13  6.53E-13  6.78E-13  3.50E-13  2.94E-13  2.34E-13  9.50E-13  2.37E-13
  3.82E-13  1.09E-13  1.75E-13  9.87E-14  2.83E-13  1.53E-13  3.00E-13  3.19E-13
  3.35E-13  2.36E-13  2.72E-13  2.34E-13  5.21E-13  8.44E-13  7.48E-13  5.83E-13
  1.56E-13  4.25E-13  3.57E-13  2.67E-13  3.64E-13  8.43E-13  6.75E-13  5.14E-13
  1.20E-13  3.07E-13  3.85E-13  9.76E-13  6.48E-13  8.98E-13  2.49E-07  5.11E-11
 -8.1063E-01 -8.0076E-01 -7.8577E-01 -7.6549E-01 -7.3996E-01 -7.0948E-01
 -6.7502E-01 -6.4080E-01 -5.6656E-01 -5.2544E-01 -4.7861E-01 -4.3004E-01
 -3.8831E-01 -3.8318E-01 -3.7884E-01 -3.7153E-01 -3.6340E-01 -3.6039E-01
 -3.5137E-01 -3.4336E-01 -3.3289E-01 -3.2741E-01 -3.2055E-01 -3.0177E-01
 -2.9827E-01 -2.9241E-01 -2.7622E-01 -2.7390E-01 -2.6000E-01 -2.5636E-01
 -2.4717E-01 -2.2582E-01 -1.9636E-01 -3.8616E-02 -3.4440E-03  2.4764E-02
  2.6286E-02  3.0527E-02  3.7481E-02  4.0470E-02
  prteigrs : nnsclo,ikpt=   80    5 max resid (incl. the buffer)=  2.49302E-07
 Non-SCF case, kpt    6 (  0.00000  0.00000  0.16667), residuals and eigenvalues=
  9.20E-13  3.60E-13  6.98E-13  2.77E-13  3.28E-13  3.43E-13  5.63E-13  6.51E-13
  1.22E-13  2.77E-13  1.61E-13  1.13E-13  1.52E-13  3.55E-13  1.64E-13  3.42E-13
  4.05E-13  2.13E-13  7.06E-13  1.59E-13  2.26E-13  1.83E-13  8.33E-13  4.97E-13
  2.18E-13  7.07E-13  5.76E-13  2.99E-13  7.54E-13  9.56E-13  2.24E-13  7.02E-13
  2.04E-13  9.54E-13  4.64E-13  9.04E-13  6.90E-13  7.23E-13  8.59E-13  6.04E-13
 -8.0417E-01 -7.9432E-01 -7.7937E-01 -7.5915E-01 -7.3370E-01 -7.0335E-01
 -6.6906E-01 -6.3507E-01 -5.6165E-01 -5.2118E-01 -4.7568E-01 -4.2999E-01
 -4.0888E-01 -3.9884E-01 -3.9253E-01 -3.7801E-01 -3.6885E-01 -3.6385E-01
 -3.5275E-01 -3.4454E-01 -3.4259E-01 -3.3578E-01 -3.1500E-01 -3.1306E-01
 -3.1197E-01 -2.9307E-01 -2.8503E-01 -2.8299E-01 -2.6397E-01 -2.5807E-01
 -2.5270E-01 -2.1846E-01 -1.8870E-01 -4.2274E-02 -7.0976E-03  3.2794E-02
  3.4042E-02  3.4914E-02  3.8826E-02  4.8922E-02
 Non-SCF case, kpt    7 (  0.00000  0.00000  0.20000), residuals and eigenvalues=
  3.18E-13  2.45E-13  8.96E-13  2.20E-13  1.84E-13  3.52E-13  3.23E-13  3.37E-13
  2.92E-13  1.67E-13  1.52E-13  6.57E-13  2.48E-13  3.68E-13  5.18E-13  5.73E-13
  3.52E-13  4.14E-13  2.60E-13  6.72E-13  3.07E-13  9.82E-13  1.93E-13  2.14E-13
  2.43E-13  8.23E-13  6.49E-13  5.76E-13  3.19E-13  3.89E-13  5.57E-13  7.01E-13
  6.09E-13  4.80E-13  9.27E-13  6.40E-13  6.56E-13  8.70E-13  5.79E-12  5.82E-09
 -7.9629E-01 -7.8647E-01 -7.7156E-01 -7.5141E-01 -7.2607E-01 -6.9588E-01
 -6.6181E-01 -6.2809E-01 -5.5616E-01 -5.1675E-01 -4.7380E-01 -4.3464E-01
 -4.3084E-01 -4.1862E-01 -4.0939E-01 -3.9216E-01 -3.8458E-01 -3.6267E-01
 -3.5452E-01 -3.5215E-01 -3.4347E-01 -3.3551E-01 -3.2660E-01 -3.1769E-01
 -3.1355E-01 -3.0401E-01 -2.8844E-01 -2.7612E-01 -2.7285E-01 -2.7091E-01
 -2.4391E-01 -2.0960E-01 -1.7941E-01 -4.7802E-02 -1.2861E-02  2.8861E-02
  4.2269E-02  4.3327E-02  4.9106E-02  5.9289E-02
  prteigrs : nnsclo,ikpt=   80    7 max resid (incl. the buffer)=  5.81755E-09
 Non-SCF case, kpt    8 (  0.00000  0.00000  0.23333), residuals and eigenvalues=
  7.12E-13  9.56E-13  4.92E-13  8.54E-13  2.37E-13  3.02E-13  7.78E-13  3.11E-13
  8.94E-13  4.19E-13  2.44E-13  3.33E-13  9.03E-13  1.15E-13  2.59E-13  4.45E-13
  3.78E-13  1.48E-13  3.45E-13  4.75E-13  5.86E-13  7.44E-13  6.00E-13  5.75E-13
  1.43E-13  2.12E-13  4.97E-13  2.94E-13  6.65E-13  1.74E-13  5.26E-13  4.33E-13
  2.17E-13  3.69E-13  8.11E-13  4.83E-13  9.27E-13  6.20E-13  4.26E-06  3.26E-10
 -7.8701E-01 -7.7721E-01 -7.6236E-01 -7.4230E-01 -7.1709E-01 -6.8709E-01
 -6.5330E-01 -6.1988E-01 -5.5078E-01 -5.1350E-01 -4.7610E-01 -4.5240E-01
 -4.4810E-01 -4.3649E-01 -4.2521E-01 -4.1087E-01 -3.9400E-01 -3.8318E-01
 -3.6052E-01 -3.5234E-01 -3.4358E-01 -3.3720E-01 -3.3260E-01 -3.1895E-01
 -3.1585E-01 -2.9432E-01 -2.9345E-01 -2.8529E-01 -2.8310E-01 -2.6578E-01
 -2.3376E-01 -1.9940E-01 -1.6860E-01 -5.5603E-02 -2.1098E-02  1.9251E-02
  5.3006E-02  5.4009E-02  5.9698E-02  6.1436E-02
  prteigrs : nnsclo,ikpt=   80    8 max resid (incl. the buffer)=  4.26123E-06
 Non-SCF case, kpt    9 (  0.00000  0.00000  0.26667), residuals and eigenvalues=
  9.53E-13  3.30E-13  4.10E-13  3.67E-13  4.36E-13  1.73E-13  2.75E-13  6.01E-13
  9.57E-14  7.41E-13  4.89E-13  3.26E-13  6.99E-13  7.00E-13  3.12E-13  9.46E-13
  2.65E-13  1.98E-13  7.39E-13  7.08E-13  2.15E-13  9.15E-13  3.16E-13  3.77E-13
  9.29E-13  2.44E-13  7.75E-13  2.13E-13  3.11E-13  7.41E-13  7.32E-13  4.35E-13
  8.40E-13  3.11E-13  8.15E-13  7.78E-13  9.52E-13  7.98E-13  1.03E-12  3.84E-09
 -7.7633E-01 -7.6658E-01 -7.5179E-01 -7.3183E-01 -7.0678E-01 -6.7702E-01
 -6.4357E-01 -6.1046E-01 -5.4727E-01 -5.1479E-01 -4.8707E-01 -4.7144E-01
 -4.6475E-01 -4.5364E-01 -4.3848E-01 -4.2653E-01 -4.1001E-01 -3.9079E-01
 -3.8258E-01 -3.6004E-01 -3.5296E-01 -3.3107E-01 -3.2098E-01 -3.2019E-01
 -3.0362E-01 -3.0321E-01 -2.9875E-01 -2.9468E-01 -2.8148E-01 -2.5415E-01
 -2.2244E-01 -1.8810E-01 -1.5639E-01 -6.5859E-02 -3.1825E-02  6.4575E-03
  4.4659E-02  6.4864E-02  6.5914E-02  7.5831E-02
  prteigrs : nnsclo,ikpt=   80    9 max resid (incl. the buffer)=  3.83605E-09
 Non-SCF case, kpt   10 (  0.00000  0.00000  0.30000), residuals and eigenvalues=
  5.34E-13  3.17E-13  4.95E-13  6.96E-13  6.85E-13  5.37E-13  5.90E-13  2.85E-13
  8.88E-13  3.85E-13  3.15E-13  3.12E-13  3.65E-13  2.17E-13  3.37E-13  1.68E-13
  2.09E-13  5.92E-13  5.56E-13  1.47E-13  4.32E-13  6.27E-13  5.93E-13  1.17E-13
  2.33E-13  1.56E-13  7.84E-13  2.08E-13  5.52E-13  2.34E-13  7.91E-13  4.33E-13
  4.96E-13  4.33E-13  8.14E-13  3.52E-13  3.50E-13  6.20E-13  8.35E-13  4.82E-11
 -7.6429E-01 -7.5458E-01 -7.3987E-01 -7.2004E-01 -6.9519E-01 -6.6574E-01
[...]
                       1.000000  1.000000  1.000000  1.000000  1.000000  1.000000
                       1.000000  1.000000  1.000000  1.000000  1.000000  1.000000
                       1.000000  1.000000  1.000000  1.000000  1.000000  1.000000
                       1.000000  1.000000  1.000000  1.000000  1.000000  1.000000
                       1.000000  1.000000  1.000000  0.000000  0.000000  0.000000
                       0.000000  0.000000  0.000000  0.000000  0.000000  0.000000
                       1.000000  1.000000  1.000000  1.000000  1.000000  1.000000
                       1.000000  1.000000  1.000000  1.000000  1.000000  1.000000
                       1.000000  1.000000  1.000000  1.000000  1.000000  1.000000
                       1.000000  1.000000  1.000000  1.000000  1.000000  1.000000
                       1.000000  1.000000  1.000000  1.000000  1.000000  1.000000
                       1.000000  1.000000  1.000000  0.000000  0.000000  0.000000
                       0.000000  0.000000  0.000000  0.000000  0.000000  0.000000
                       1.000000  1.000000  1.000000  1.000000  1.000000  1.000000
                       1.000000  1.000000  1.000000  1.000000  1.000000  1.000000
                       1.000000  1.000000  1.000000  1.000000  1.000000  1.000000
                       1.000000  1.000000  1.000000  1.000000  1.000000  1.000000
                       1.000000  1.000000  1.000000  1.000000  1.000000  1.000000
                       1.000000  1.000000  1.000000  0.000000  0.000000  0.000000
                       0.000000  0.000000  0.000000  0.000000  0.000000  0.000000
                       1.000000  1.000000  1.000000  1.000000  1.000000  1.000000
                       1.000000  1.000000  1.000000  1.000000  1.000000  1.000000
                       1.000000  1.000000  1.000000  1.000000  1.000000  1.000000
                       1.000000  1.000000  1.000000  1.000000  1.000000  1.000000
                       1.000000  1.000000  1.000000  1.000000  1.000000  1.000000
                       1.000000  1.000000  1.000000  0.000000  0.000000  0.000000
                       0.000000  0.000000  0.000000  0.000000  0.000000  0.000000
                       1.000000  1.000000  1.000000  1.000000  1.000000  1.000000
                       1.000000  1.000000  1.000000  1.000000  1.000000  1.000000
                       1.000000  1.000000  1.000000  1.000000  1.000000  1.000000
                       1.000000  1.000000  1.000000  1.000000  1.000000  1.000000
                       1.000000  1.000000  1.000000  1.000000  1.000000  1.000000
                       1.000000  1.000000  0.999545  0.000045  0.000000  0.000000
                       0.000000  0.000000  0.000000  0.000000  0.000000  0.000000
                       1.000000  1.000000  1.000000  1.000000  1.000000  1.000000
                       1.000000  1.000000  1.000000  1.000000  1.000000  1.000000
                       1.000000  1.000000  1.000000  1.000000  1.000000  1.000000
                       1.000000  1.000000  1.000000  1.000000  1.000000  1.000000
                       1.000000  1.000000  1.000000  1.000000  1.000000  1.000000
                       1.000000  1.000000  0.937196  0.020034  0.000000  0.000000
                       0.000000  0.000000  0.000000  0.000000  0.000000  0.000000
                       1.000000  1.000000  1.000000  1.000000  1.000000  1.000000
                       1.000000  1.000000  1.000000  1.000000  1.000000  1.000000
                       1.000000  1.000000  1.000000  1.000000  1.000000  1.000000
                       1.000000  1.000000  1.000000  1.000000  1.000000  1.000000
                       1.000000  1.000000  1.000000  1.000000  1.000000  1.000000
                       1.000000  1.000000  0.802432  0.121490  0.000000  0.000000
                       0.000000  0.000000  0.000000  0.000000  0.000000  0.000000
                       1.000000  1.000000  1.000000  1.000000  1.000000  1.000000
                       1.000000  1.000000  1.000000  1.000000  1.000000  1.000000
                       1.000000  1.000000  1.000000  1.000000  1.000000  1.000000
                       1.000000  1.000000  1.000000  1.000000  1.000000  1.000000
                       1.000000  1.000000  1.000000  1.000000  1.000000  1.000000
                       1.000000  1.000000  0.916760  0.092473  0.000000  0.000000
                       0.000000  0.000000  0.000000  0.000000  0.000000  0.000000
                       1.000000  1.000000  1.000000  1.000000  1.000000  1.000000
                       1.000000  1.000000  1.000000  1.000000  1.000000  1.000000
                       1.000000  1.000000  1.000000  1.000000  1.000000  1.000000
                       1.000000  1.000000  1.000000  1.000000  1.000000  1.000000
                       1.000000  1.000000  1.000000  1.000000  1.000000  1.000000
                       1.000000  1.000000  0.967381  0.081183  0.000000  0.000000
                       0.000000  0.000000  0.000000  0.000000  0.000000  0.000000
                       1.000000  1.000000  1.000000  1.000000  1.000000  1.000000
                       1.000000  1.000000  1.000000  1.000000  1.000000  1.000000
                       1.000000  1.000000  1.000000  1.000000  1.000000  1.000000
                       1.000000  1.000000  1.000000  1.000000  1.000000  1.000000
                       1.000000  1.000000  1.000000  1.000000  1.000000  1.000000
                       1.000000  1.000000  0.981771  0.079723  0.000000  0.000000
                       0.000000  0.000000  0.000000  0.000000  0.000000  0.000000
           occopt           7
        pawecutdg      4.00000000E+01 Hartree
          pawovlp      1.0000000000E+01
           shiftk1     0.00000000E+00  0.00000000E+00  5.00000000E-01
           shiftk2     5.00000000E-01  5.00000000E-01  5.00000000E-01
          spgroup           1
           spinat      0.0000000000E+00  0.0000000000E+00  1.0000000000E+00
                       0.0000000000E+00  0.0000000000E+00  0.0000000000E+00
                       0.0000000000E+00  0.0000000000E+00  0.0000000000E+00
                       0.0000000000E+00  0.0000000000E+00  0.0000000000E+00
                       0.0000000000E+00  0.0000000000E+00  0.0000000000E+00
                       0.0000000000E+00  0.0000000000E+00  0.0000000000E+00
                       0.0000000000E+00  0.0000000000E+00  0.0000000000E+00
                       0.0000000000E+00  0.0000000000E+00  0.0000000000E+00
                       0.0000000000E+00  0.0000000000E+00  0.0000000000E+00
                       0.0000000000E+00  0.0000000000E+00  0.0000000000E+00
                       0.0000000000E+00  0.0000000000E+00  0.0000000000E+00
                       0.0000000000E+00  0.0000000000E+00  0.0000000000E+00
                       0.0000000000E+00  0.0000000000E+00  0.0000000000E+00
                       0.0000000000E+00  0.0000000000E+00  0.0000000000E+00
                       0.0000000000E+00  0.0000000000E+00  0.0000000000E+00
                       0.0000000000E+00  0.0000000000E+00  0.0000000000E+00
                       0.0000000000E+00  0.0000000000E+00  0.0000000000E+00
                       0.0000000000E+00  0.0000000000E+00 -1.0000000000E+00
           strten1     2.4120398523E-07  8.0321258795E-07 -3.0007246495E-07
                       4.2466162139E-10  2.5389829257E-12  1.5517008316E-12
           toldfe1     1.00000000E-06 Hartree
           toldfe2     0.00000000E+00 Hartree
           tolwfr1     0.00000000E+00
           tolwfr2     1.00000000E-12
            typat      2  1  1  1  1  1  1  1  1  1  1  1  1  1  1  1  1  2
           useylm           1
              wtk1       0.06667    0.06667    0.06667    0.06667    0.06667    0.06667
                         0.06667    0.06667    0.06667    0.06667    0.06667    0.06667
                         0.06667    0.06667    0.06667
              wtk2       1.00000    1.00000    1.00000    1.00000    1.00000    1.00000
                         1.00000    1.00000    1.00000    1.00000    1.00000    1.00000
                         1.00000    1.00000    1.00000    1.00000
           xangst      2.1924687653E-06 -8.9347127982E+00  1.2253261414E+00
                      -6.3335522880E-06 -7.8374663590E+00  1.2252914015E+00
                      -1.2466279888E-05 -7.1553103483E+00 -9.0703680259E-03
                      -2.4889138031E-05 -5.7095725410E+00 -9.0145181006E-03
                      -3.0871693702E-05 -5.0013301057E+00  1.2253608862E+00
                      -4.2554247256E-05 -3.5682760068E+00  1.2253671991E+00
                      -4.7331677516E-05 -2.8569447694E+00 -8.9956653736E-03
                      -5.1814279312E-05 -1.4267271463E+00 -8.9761860125E-03
                      -5.0440741501E-05 -7.1470430595E-01  1.2253949192E+00
                      -3.9645629859E-05  7.1487653105E-01  1.2253974953E+00
                      -3.1339882842E-05  1.4268988477E+00 -8.9725857920E-03
                      -1.2927341998E-05  2.8571142755E+00 -8.9900137798E-03
                      -3.8630326290E-06  3.5684443157E+00  1.2253733133E+00
                       1.1398425826E-05  5.0014956819E+00  1.2253679131E+00
                       1.7259567710E-05  5.7097392667E+00 -9.0075717678E-03
                       2.3882826847E-05  7.1554797931E+00 -9.0650236494E-03
                       2.4511032039E-05  7.8376359584E+00  1.2252964978E+00
                       2.2583175635E-05  8.9348828407E+00  1.2253293079E+00
            xcart      4.1431655213E-06 -1.6884160265E+01  2.3155308307E+00
                      -1.1968679273E-05 -1.4810664994E+01  2.3154651818E+00
                      -2.3557854884E-05 -1.3521576954E+01 -1.7140511493E-02
                      -4.7033654562E-05 -1.0789528438E+01 -1.7034970430E-02
                      -5.8339046355E-05 -9.4511441999E+00  2.3155964889E+00
                      -8.0415873105E-05 -6.7430644194E+00  2.3156084185E+00
                      -8.9443907915E-05 -5.3988431909E+00 -1.6999343939E-02
                      -9.7914797673E-05 -2.6961235729E+00 -1.6962533281E-02
                      -9.5319187377E-05 -1.3505954042E+00  2.3156608019E+00
                      -7.4919382799E-05  1.3509208625E+00  2.3156656700E+00
                      -5.9223795608E-05  2.6964480415E+00 -1.6955729851E-02
                      -2.4429136002E-05  5.3991635111E+00 -1.6988663975E-02
                      -7.3000737112E-06  6.7433824771E+00  2.3156199727E+00
                       2.1539903157E-05  9.4514570936E+00  2.3156097678E+00
                       3.2615856144E-05  1.0789843504E+01 -1.7021843763E-02
                       4.5132002020E-05  1.3521897158E+01 -1.7130412085E-02
                       4.6319137788E-05  1.4810985491E+01  2.3154748124E+00
                       4.2676017161E-05  1.6884481598E+01  2.3155368145E+00
             xred      1.4616458439E-07 -2.5527750852E-01  4.9634001573E-01
                      -4.2223681918E-07 -2.2392761026E-01  4.9632594372E-01
                      -8.3108532585E-07 -2.0443743852E-01 -3.6741129211E-03
                      -1.6592758687E-06 -1.6313064403E-01 -3.6514899215E-03
                      -2.0581129135E-06 -1.4289514588E-01  4.9635408973E-01
                      -2.8369498171E-06 -1.0195074305E-01  4.9635664688E-01
                      -3.1554451678E-06 -8.1626993411E-02 -3.6438532911E-03
                      -3.4542852875E-06 -4.0763632751E-02 -3.6359628316E-03
                      -3.3627161001E-06 -2.0420123027E-02  4.9636787540E-01
                      -2.6430419906E-06  2.0425043744E-02  4.9636891889E-01
                      -2.0893255228E-06  4.0768538506E-02 -3.6345044986E-03
                      -8.6182279989E-07  8.1631836443E-02 -3.6415640132E-03
                      -2.5753550862E-07  1.0195555188E-01  4.9635912355E-01
                       7.5989505505E-07  1.4289987663E-01  4.9635693610E-01
                       1.1506378473E-06  1.6313540762E-01 -3.6486761866E-03
                       1.5921884565E-06  2.0444227980E-01 -3.6719480869E-03
                       1.6340688026E-06  2.2393245595E-01  4.9632800807E-01
                       1.5055450423E-06  2.5528236688E-01  4.9634129838E-01
            znucl        6.00000    1.00000

================================================================================

- Total cpu        time (s,m,h):      12819.6      213.66      3.561
- Total wall clock time (s,m,h):       8379.4      139.66      2.328
-
- For major independent code sections, cpu and wall times (sec),
-  as well as % of the time and number of calls for node 0-
-<BEGIN_TIMER mpi_nprocs = 1, omp_nthreads = 1, mpi_rank = 0>
- cpu_time =        12819.6, wall_time =         8379.4
-
- routine                        cpu     %       wall     %      number of calls  Gflops    Speedup Efficacity
-                                                                  (-1=no count)
- vtowfk(ssdiag)              4748.541  37.0    310.724   3.7             -1      -1.00       15.28      15.28
- nonlop(apply)               4071.465  31.8   4072.216  48.6         256779      -1.00        1.00       1.00
- fourwf%(pot)                2245.213  17.5   2244.831  26.8         256779      -1.00        1.00       1.00
- projbd                       950.222   7.4    950.798  11.3         193759      -1.00        1.00       1.00
- vtowfk(contrib)              226.329   1.8    226.234   2.7            962      -1.00        1.00       1.00
- fourwf%(den)                 146.066   1.1    146.137   1.7          31070      -1.00        1.00       1.00
- others (107)                 162.439   1.3    161.175   1.9             -1      -1.00        1.01       1.01
-<END_TIMER>
-
- subtotal                   12550.275  97.9   8112.115  96.8                                  1.55       1.55

- For major independent code sections, cpu and wall times (sec),
- as well as % of the total time and number of calls 

-<BEGIN_TIMER mpi_nprocs = 1, omp_nthreads = 1, mpi_rank = world>
- cpu_time =       12819.6, wall_time =        8379.4
-
- routine                         cpu     %       wall     %      number of calls Gflops    Speedup Efficacity
-                                                                  (-1=no count)
- vtowfk(ssdiag)              4748.541  37.0    310.724   3.7             -1      -1.00       15.28      15.28
- nonlop(apply)               4071.465  31.8   4072.216  48.6         256779      -1.00        1.00       1.00
- fourwf%(pot)                2245.213  17.5   2244.831  26.8         256779      -1.00        1.00       1.00
- projbd                       950.222   7.4    950.798  11.3         193759      -1.00        1.00       1.00
- vtowfk(contrib)              226.329   1.8    226.234   2.7            962      -1.00        1.00       1.00
- fourwf%(den)                 146.066   1.1    146.137   1.7          31070      -1.00        1.00       1.00
- others (107)                 162.439   1.3    161.175   1.9             -1      -1.00        1.01       1.01
-<END_TIMER>

- subtotal                   12550.275  97.9   8112.115  96.8                                  1.55       1.55

================================================================================

 Suggested references for the acknowledgment of ABINIT usage.

 The users of ABINIT have little formal obligations with respect to the ABINIT group
 (those specified in the GNU General Public License, http://www.gnu.org/copyleft/gpl.txt).
 However, it is common practice in the scientific literature,
 to acknowledge the efforts of people that have made the research possible.
 In this spirit, please find below suggested citations of work written by ABINIT developers,
 corresponding to implementations inside of ABINIT that you have used in the present run.
 Note also that it will be of great value to readers of publications presenting these results,
 to read papers enabling them to understand the theoretical formalism and details
 of the ABINIT implementation.
 For information on why they are suggested, see also http://www.abinit.org/about/?text=acknowledgments.
-
- [1] Implementation of the Projector Augmented-Wave Method in the ABINIT code.
- M. Torrent, F. Jollet, F. Bottin, G. Zerah, and X. Gonze Comput. Mat. Science 42, 337, (2008).
- Comment : PAW calculations. Strong suggestion to cite this paper.
-
- [2] Recent developments in the ABINIT software package.
- Computer Phys. Comm. 205, 106 (2016).
- X.Gonze, F.Jollet, F.Abreu Araujo, D.Adams, B.Amadon, T.Applencourt,
- C.Audouze, J.-M.Beuken, J.Bieder, A.Bokhanchuk, E.Bousquet, F.Bruneval
- D.Caliste, M.Cote, F.Dahm, F.Da Pieve, M.Delaveau, M.Di Gennaro,
- B.Dorado, C.Espejo, G.Geneste, L.Genovese, A.Gerossier, M.Giantomassi,
- Y.Gillet, D.R.Hamann, L.He, G.Jomard, J.Laflamme Janssen, S.Le Roux,
- A.Levitt, A.Lherbier, F.Liu, I.Lukacevic, A.Martin, C.Martins,
- M.J.T.Oliveira, S.Ponce, Y.Pouillon, T.Rangel, G.-M.Rignanese,
- A.H.Romero, B.Rousseau, O.Rubel, A.A.Shukri, M.Stankovski, M.Torrent,
- M.J.Van Setten, B.Van Troeye, M.J.Verstraete, D.Waroquier, J.Wiktor,
- B.Xue, A.Zhou, J.W.Zwanziger.
- Comment : the fourth generic paper describing the ABINIT project.
- Note that a version of this paper, that is not formatted for Computer Phys. Comm. 
- is available at http://www.abinit.org/about/ABINIT16.pdf .
- The licence allows the authors to put it on the Web.
-
- [3] ABINIT : First-principles approach of materials and nanosystem properties.
- Computer Phys. Comm. 180, 2582-2615 (2009).
- X. Gonze, B. Amadon, P.-M. Anglade, J.-M. Beuken, F. Bottin, P. Boulanger, F. Bruneval,
- D. Caliste, R. Caracas, M. Cote, T. Deutsch, L. Genovese, Ph. Ghosez, M. Giantomassi
- S. Goedecker, D.R. Hamann, P. Hermet, F. Jollet, G. Jomard, S. Leroux, M. Mancini, S. Mazevet,
- M.J.T. Oliveira, G. Onida, Y. Pouillon, T. Rangel, G.-M. Rignanese, D. Sangalli, R. Shaltaf,
- M. Torrent, M.J. Verstraete, G. Zerah, J.W. Zwanziger
- Comment : the third generic paper describing the ABINIT project.
- Note that a version of this paper, that is not formatted for Computer Phys. Comm. 
- is available at http://www.abinit.org/about/ABINIT_CPC_v10.pdf .
- The licence allows the authors to put it on the Web.
-
- [4] A brief introduction to the ABINIT software package.
- Z. Kristallogr. 220, 558-562 (2005).
- X. Gonze, G.-M. Rignanese, M. Verstraete, J.-M. Beuken, Y. Pouillon, R. Caracas, F. Jollet,
- M. Torrent, G. Zerah, M. Mikami, Ph. Ghosez, M. Veithen, J.-Y. Raty, V. Olevano, F. Bruneval,
- L. Reining, R. Godby, G. Onida, D.R. Hamann, and D.C. Allan.
- Comment : the second generic paper describing the ABINIT project. Note that this paper
- should be cited especially if you are using the GW part of ABINIT, as several authors
- of this part are not in the list of authors of the first or third paper.
- The .pdf of the latter paper is available at http://www.abinit.org/about/zfk_0505-06_558-562.pdf.
- Note that it should not redistributed (Copyright by Oldenburg Wissenshaftverlag,
- the licence allows the authors to put it on the Web).
-
- And optionally:
-
- [5] First-principles computation of material properties : the ABINIT software project. 
- X. Gonze, J.-M. Beuken, R. Caracas, F. Detraux, M. Fuchs, G.-M. Rignanese, L. Sindic,
- M. Verstraete, G. Zerah, F. Jollet, M. Torrent, A. Roy, M. Mikami, Ph. Ghosez, J.-Y. Raty, D.C. Allan.
- Computational Materials Science 25, 478-492 (2002). http://dx.doi.org/10.1016/S0927-0256(02)00325-7
- Comment : the original paper describing the ABINIT project.
-
- Proc.   0 individual time (sec): cpu=      12819.6  wall=       8379.4

================================================================================

 Calculation completed.
.Delivered  40 WARNINGs and   4 COMMENTs to log file.
+Overall time at end (sec) : cpu=      12819.6  wall=       8379.4
