
.Version 8.4.3 of ABINIT 
.(sequential version, prepared for a x86_64_linux_gnu5.4 computer) 

.Copyright (C) 1998-2017 ABINIT group . 
 ABINIT comes with ABSOLUTELY NO WARRANTY.
 It is free software, and you are welcome to redistribute it
 under certain conditions (GNU General Public License,
 see ~abinit/COPYING or http://www.gnu.org/copyleft/gpl.txt).

 ABINIT is a project of the Universite Catholique de Louvain,
 Corning Inc. and other collaborators, see ~abinit/doc/developers/contributors.txt .
 Please read ~abinit/doc/users/acknowledgments.html for suggested
 acknowledgments of the ABINIT effort.
 For more information, see http://www.abinit.org .

.Starting date : Mon 28 Aug 2017.
- ( at 13h28 )
  
- input  file    -> zgnr.in
- output file    -> zgnr.out
- root for input  files -> zgnri
- root for output files -> zgnro

- inpspheads : Reading pseudopotential header in XML form from ../C.LDA_PW-JTH.xml
- inpspheads : Reading pseudopotential header in XML form from ../H.LDA_PW-JTH.xml

 DATASET    1 : space group P1 (#  1); Bravais aP (primitive triclinic)
================================================================================
 Values of the parameters that define the memory need for DATASET  1.
     intxc =       0    ionmov =       0      iscf =      17    lmnmax =       8
     lnmax =       4     mgfft =     225  mpssoang =       2    mqgrid =   18831
     natom =      18  nloc_mem =       2    nspden =       2   nspinor =       1
    nsppol =       2      nsym =       1    n1xccc =       1    ntypat =       2
    occopt =       7   xclevel =       1
-    mband =          42        mffmem =           1         mkmem =          15
       mpw =       22040          nfft =      345600          nkpt =          15
 PAW method is used; the additional fine FFT grid is defined by:
   mgfftf=       384    nfftf =   1866240
================================================================================
P This job should need less than                     923.580 Mbytes of memory.
  Rough estimation (10% accuracy) of disk space for files :
_ WF disk file :    423.745 Mbytes ; DEN or POT disk file :     28.479 Mbytes.
================================================================================


 DATASET    2 : space group P1 (#  1); Bravais aP (primitive triclinic)
================================================================================
 Values of the parameters that define the memory need for DATASET  2.
     intxc =       0    ionmov =       0      iscf =      -2    lmnmax =       8
     lnmax =       4     mgfft =     225  mpssoang =       2    mqgrid =   18831
     natom =      18  nloc_mem =       2    nspden =       2   nspinor =       1
    nsppol =       2      nsym =       1    n1xccc =       1    ntypat =       2
    occopt =       7   xclevel =       1
-    mband =          40        mffmem =           1         mkmem =          16
       mpw =       22062          nfft =      345600          nkpt =          16
 PAW method is used; the additional fine FFT grid is defined by:
   mgfftf=       384    nfftf =   1866240
================================================================================
P This job should need less than                     736.012 Mbytes of memory.
  Rough estimation (10% accuracy) of disk space for files :
_ WF disk file :    430.900 Mbytes ; DEN or POT disk file :     28.479 Mbytes.
================================================================================

--------------------------------------------------------------------------------
------------- Echo of variables that govern the present computation ------------
--------------------------------------------------------------------------------
-
- outvars: echo of selected default values                                      
-   iomode0 =  0 , fftalg0 =112 , wfoptalg0 = 10
-
- outvars: echo of global parameters not present in the input file              
-  max_nthreads =    0
-
 -outvars: echo values of preprocessed input variables --------
            acell      2.8345891993E+01  6.6140414651E+01  4.6652108581E+00 Bohr
              amu      1.20110000E+01  1.00794000E+00
           diemac      1.00000000E+01
             ecut      1.40000000E+01 Hartree
           enunit1          0
           enunit2          1
-          fftalg         112
           getden1          0
           getden2         -1
             iscf1         17
             iscf2         -2
           istwfk2       2    0    0    0    0    0    0    0    0    0
                         0    0    0    0    0    4
              ixc           7
           jdtset        1    2
              kpt1     0.00000000E+00  0.00000000E+00  1.66666667E-02
                       0.00000000E+00  0.00000000E+00  5.00000000E-02
                       0.00000000E+00  0.00000000E+00  8.33333333E-02
                       0.00000000E+00  0.00000000E+00  1.16666667E-01
                       0.00000000E+00  0.00000000E+00  1.50000000E-01
                       0.00000000E+00  0.00000000E+00  1.83333333E-01
                       0.00000000E+00  0.00000000E+00  2.16666667E-01
                       0.00000000E+00  0.00000000E+00  2.50000000E-01
                       0.00000000E+00  0.00000000E+00  2.83333333E-01
                       0.00000000E+00  0.00000000E+00  3.16666667E-01
                       0.00000000E+00  0.00000000E+00  3.50000000E-01
                       0.00000000E+00  0.00000000E+00  3.83333333E-01
                       0.00000000E+00  0.00000000E+00  4.16666667E-01
                       0.00000000E+00  0.00000000E+00  4.50000000E-01
                       0.00000000E+00  0.00000000E+00  4.83333333E-01
              kpt2     0.00000000E+00  0.00000000E+00  0.00000000E+00
                       0.00000000E+00  0.00000000E+00  3.33333333E-02
                       0.00000000E+00  0.00000000E+00  6.66666667E-02
                       0.00000000E+00  0.00000000E+00  1.00000000E-01
                       0.00000000E+00  0.00000000E+00  1.33333333E-01
                       0.00000000E+00  0.00000000E+00  1.66666667E-01
                       0.00000000E+00  0.00000000E+00  2.00000000E-01
                       0.00000000E+00  0.00000000E+00  2.33333333E-01
                       0.00000000E+00  0.00000000E+00  2.66666667E-01
                       0.00000000E+00  0.00000000E+00  3.00000000E-01
                       0.00000000E+00  0.00000000E+00  3.33333333E-01
                       0.00000000E+00  0.00000000E+00  3.66666667E-01
                       0.00000000E+00  0.00000000E+00  4.00000000E-01
                       0.00000000E+00  0.00000000E+00  4.33333333E-01
                       0.00000000E+00  0.00000000E+00  4.66666667E-01
                       0.00000000E+00  0.00000000E+00  5.00000000E-01
           kptopt1          1
           kptopt2         -1
         kptrlatt        1    0    0      0    1    0      0    0   30
          kptrlen1     1.39956326E+02
          kptrlen2     3.00000000E+01
P           mkmem1         15
P           mkmem2         16
            natom          18
            nband1         42
            nband2         40
           nbdbuf1          0
           nbdbuf2          2
           ndtset           2
            ngfft          96     225      16
          ngfftdg         162     384      30
             nkpt1         15
             nkpt2         16
           nspden           2
           nsppol           2
            nstep          80
             nsym           1
           ntypat           2
              occ      1.000000  1.000000  1.000000  1.000000  1.000000  1.000000
                       1.000000  1.000000  1.000000  1.000000  1.000000  1.000000
                       1.000000  1.000000  1.000000  1.000000  1.000000  1.000000
                       1.000000  1.000000  1.000000  1.000000  1.000000  1.000000
                       1.000000  1.000000  1.000000  1.000000  1.000000  1.000000
                       1.000000  1.000000  1.000000  0.000000  0.000000  0.000000
                       0.000000  0.000000  0.000000  0.000000  0.000000  0.000000
                       1.000000  1.000000  1.000000  1.000000  1.000000  1.000000
                       1.000000  1.000000  1.000000  1.000000  1.000000  1.000000
                       1.000000  1.000000  1.000000  1.000000  1.000000  1.000000
                       1.000000  1.000000  1.000000  1.000000  1.000000  1.000000
                       1.000000  1.000000  1.000000  1.000000  1.000000  1.000000
                       1.000000  1.000000  1.000000  0.000000  0.000000  0.000000
                       0.000000  0.000000  0.000000  0.000000  0.000000  0.000000
                       1.000000  1.000000  1.000000  1.000000  1.000000  1.000000
                       1.000000  1.000000  1.000000  1.000000  1.000000  1.000000
                       1.000000  1.000000  1.000000  1.000000  1.000000  1.000000
                       1.000000  1.000000  1.000000  1.000000  1.000000  1.000000
                       1.000000  1.000000  1.000000  1.000000  1.000000  1.000000
                       1.000000  1.000000  1.000000  0.000000  0.000000  0.000000
                       0.000000  0.000000  0.000000  0.000000  0.000000  0.000000
                       1.000000  1.000000  1.000000  1.000000  1.000000  1.000000
                       1.000000  1.000000  1.000000  1.000000  1.000000  1.000000
                       1.000000  1.000000  1.000000  1.000000  1.000000  1.000000
                       1.000000  1.000000  1.000000  1.000000  1.000000  1.000000
                       1.000000  1.000000  1.000000  1.000000  1.000000  1.000000
                       1.000000  1.000000  1.000000  0.000000  0.000000  0.000000
                       0.000000  0.000000  0.000000  0.000000  0.000000  0.000000
                       1.000000  1.000000  1.000000  1.000000  1.000000  1.000000
                       1.000000  1.000000  1.000000  1.000000  1.000000  1.000000
                       1.000000  1.000000  1.000000  1.000000  1.000000  1.000000
                       1.000000  1.000000  1.000000  1.000000  1.000000  1.000000
                       1.000000  1.000000  1.000000  1.000000  1.000000  1.000000
                       1.000000  1.000000  1.000000  0.000000  0.000000  0.000000
                       0.000000  0.000000  0.000000  0.000000  0.000000  0.000000
                       1.000000  1.000000  1.000000  1.000000  1.000000  1.000000
                       1.000000  1.000000  1.000000  1.000000  1.000000  1.000000
                       1.000000  1.000000  1.000000  1.000000  1.000000  1.000000
                       1.000000  1.000000  1.000000  1.000000  1.000000  1.000000
                       1.000000  1.000000  1.000000  1.000000  1.000000  1.000000
                       1.000000  1.000000  1.000000  0.000000  0.000000  0.000000
                       0.000000  0.000000  0.000000  0.000000  0.000000  0.000000
                       1.000000  1.000000  1.000000  1.000000  1.000000  1.000000
                       1.000000  1.000000  1.000000  1.000000  1.000000  1.000000
                       1.000000  1.000000  1.000000  1.000000  1.000000  1.000000
                       1.000000  1.000000  1.000000  1.000000  1.000000  1.000000
                       1.000000  1.000000  1.000000  1.000000  1.000000  1.000000
                       1.000000  1.000000  1.000000  0.000000  0.000000  0.000000
                       0.000000  0.000000  0.000000  0.000000  0.000000  0.000000
                       1.000000  1.000000  1.000000  1.000000  1.000000  1.000000
                       1.000000  1.000000  1.000000  1.000000  1.000000  1.000000
                       1.000000  1.000000  1.000000  1.000000  1.000000  1.000000
                       1.000000  1.000000  1.000000  1.000000  1.000000  1.000000
                       1.000000  1.000000  1.000000  1.000000  1.000000  1.000000
                       1.000000  1.000000  1.000000  0.000000  0.000000  0.000000
                       0.000000  0.000000  0.000000  0.000000  0.000000  0.000000
                       1.000000  1.000000  1.000000  1.000000  1.000000  1.000000
                       1.000000  1.000000  1.000000  1.000000  1.000000  1.000000
                       1.000000  1.000000  1.000000  1.000000  1.000000  1.000000
                       1.000000  1.000000  1.000000  1.000000  1.000000  1.000000
                       1.000000  1.000000  1.000000  1.000000  1.000000  1.000000
                       1.000000  1.000000  1.000000  0.000000  0.000000  0.000000
                       0.000000  0.000000  0.000000  0.000000  0.000000  0.000000
                       1.000000  1.000000  1.000000  1.000000  1.000000  1.000000
                       1.000000  1.000000  1.000000  1.000000  1.000000  1.000000
                       1.000000  1.000000  1.000000  1.000000  1.000000  1.000000
                       1.000000  1.000000  1.000000  1.000000  1.000000  1.000000
                       1.000000  1.000000  1.000000  1.000000  1.000000  1.000000
                       1.000000  1.000000  1.000000  0.000000  0.000000  0.000000
                       0.000000  0.000000  0.000000  0.000000  0.000000  0.000000
                       1.000000  1.000000  1.000000  1.000000  1.000000  1.000000
                       1.000000  1.000000  1.000000  1.000000  1.000000  1.000000
                       1.000000  1.000000  1.000000  1.000000  1.000000  1.000000
                       1.000000  1.000000  1.000000  1.000000  1.000000  1.000000
                       1.000000  1.000000  1.000000  1.000000  1.000000  1.000000
                       1.000000  1.000000  1.000000  0.000000  0.000000  0.000000
                       0.000000  0.000000  0.000000  0.000000  0.000000  0.000000
                       1.000000  1.000000  1.000000  1.000000  1.000000  1.000000
                       1.000000  1.000000  1.000000  1.000000  1.000000  1.000000
                       1.000000  1.000000  1.000000  1.000000  1.000000  1.000000
                       1.000000  1.000000  1.000000  1.000000  1.000000  1.000000
                       1.000000  1.000000  1.000000  1.000000  1.000000  1.000000
                       1.000000  1.000000  1.000000  0.000000  0.000000  0.000000
                       0.000000  0.000000  0.000000  0.000000  0.000000  0.000000
                       1.000000  1.000000  1.000000  1.000000  1.000000  1.000000
                       1.000000  1.000000  1.000000  1.000000  1.000000  1.000000
                       1.000000  1.000000  1.000000  1.000000  1.000000  1.000000
                       1.000000  1.000000  1.000000  1.000000  1.000000  1.000000
                       1.000000  1.000000  1.000000  1.000000  1.000000  1.000000
                       1.000000  1.000000  1.000000  0.000000  0.000000  0.000000
                       0.000000  0.000000  0.000000  0.000000  0.000000  0.000000
                       1.000000  1.000000  1.000000  1.000000  1.000000  1.000000
                       1.000000  1.000000  1.000000  1.000000  1.000000  1.000000
                       1.000000  1.000000  1.000000  1.000000  1.000000  1.000000
                       1.000000  1.000000  1.000000  1.000000  1.000000  1.000000
                       1.000000  1.000000  1.000000  1.000000  1.000000  1.000000
                       1.000000  1.000000  1.000000  0.000000  0.000000  0.000000
                       0.000000  0.000000  0.000000  0.000000  0.000000  0.000000
                       1.000000  1.000000  1.000000  1.000000  1.000000  1.000000
                       1.000000  1.000000  1.000000  1.000000  1.000000  1.000000
                       1.000000  1.000000  1.000000  1.000000  1.000000  1.000000
                       1.000000  1.000000  1.000000  1.000000  1.000000  1.000000
                       1.000000  1.000000  1.000000  1.000000  1.000000  1.000000
                       1.000000  1.000000  1.000000  0.000000  0.000000  0.000000
                       0.000000  0.000000  0.000000  0.000000  0.000000  0.000000
                       1.000000  1.000000  1.000000  1.000000  1.000000  1.000000
                       1.000000  1.000000  1.000000  1.000000  1.000000  1.000000
                       1.000000  1.000000  1.000000  1.000000  1.000000  1.000000
                       1.000000  1.000000  1.000000  1.000000  1.000000  1.000000
                       1.000000  1.000000  1.000000  1.000000  1.000000  1.000000
                       1.000000  1.000000  1.000000  0.000000  0.000000  0.000000
                       0.000000  0.000000  0.000000  0.000000  0.000000  0.000000
                       1.000000  1.000000  1.000000  1.000000  1.000000  1.000000
                       1.000000  1.000000  1.000000  1.000000  1.000000  1.000000
                       1.000000  1.000000  1.000000  1.000000  1.000000  1.000000
                       1.000000  1.000000  1.000000  1.000000  1.000000  1.000000
                       1.000000  1.000000  1.000000  1.000000  1.000000  1.000000
                       1.000000  1.000000  1.000000  0.000000  0.000000  0.000000
                       0.000000  0.000000  0.000000  0.000000  0.000000  0.000000
                       1.000000  1.000000  1.000000  1.000000  1.000000  1.000000
                       1.000000  1.000000  1.000000  1.000000  1.000000  1.000000
                       1.000000  1.000000  1.000000  1.000000  1.000000  1.000000
                       1.000000  1.000000  1.000000  1.000000  1.000000  1.000000
                       1.000000  1.000000  1.000000  1.000000  1.000000  1.000000
                       1.000000  1.000000  1.000000  0.000000  0.000000  0.000000
                       0.000000  0.000000  0.000000  0.000000  0.000000  0.000000
                       1.000000  1.000000  1.000000  1.000000  1.000000  1.000000
                       1.000000  1.000000  1.000000  1.000000  1.000000  1.000000
                       1.000000  1.000000  1.000000  1.000000  1.000000  1.000000
                       1.000000  1.000000  1.000000  1.000000  1.000000  1.000000
                       1.000000  1.000000  1.000000  1.000000  1.000000  1.000000
                       1.000000  1.000000  1.000000  0.000000  0.000000  0.000000
                       0.000000  0.000000  0.000000  0.000000  0.000000  0.000000
                       1.000000  1.000000  1.000000  1.000000  1.000000  1.000000
                       1.000000  1.000000  1.000000  1.000000  1.000000  1.000000
                       1.000000  1.000000  1.000000  1.000000  1.000000  1.000000
                       1.000000  1.000000  1.000000  1.000000  1.000000  1.000000
                       1.000000  1.000000  1.000000  1.000000  1.000000  1.000000
                       1.000000  1.000000  1.000000  0.000000  0.000000  0.000000
                       0.000000  0.000000  0.000000  0.000000  0.000000  0.000000
                       1.000000  1.000000  1.000000  1.000000  1.000000  1.000000
                       1.000000  1.000000  1.000000  1.000000  1.000000  1.000000
                       1.000000  1.000000  1.000000  1.000000  1.000000  1.000000
                       1.000000  1.000000  1.000000  1.000000  1.000000  1.000000
                       1.000000  1.000000  1.000000  1.000000  1.000000  1.000000
                       1.000000  1.000000  1.000000  0.000000  0.000000  0.000000
                       0.000000  0.000000  0.000000  0.000000  0.000000  0.000000
                       1.000000  1.000000  1.000000  1.000000  1.000000  1.000000
                       1.000000  1.000000  1.000000  1.000000  1.000000  1.000000
                       1.000000  1.000000  1.000000  1.000000  1.000000  1.000000
                       1.000000  1.000000  1.000000  1.000000  1.000000  1.000000
                       1.000000  1.000000  1.000000  1.000000  1.000000  1.000000
                       1.000000  1.000000  1.000000  0.000000  0.000000  0.000000
                       0.000000  0.000000  0.000000  0.000000  0.000000  0.000000
                       1.000000  1.000000  1.000000  1.000000  1.000000  1.000000
                       1.000000  1.000000  1.000000  1.000000  1.000000  1.000000
                       1.000000  1.000000  1.000000  1.000000  1.000000  1.000000
                       1.000000  1.000000  1.000000  1.000000  1.000000  1.000000
                       1.000000  1.000000  1.000000  1.000000  1.000000  1.000000
                       1.000000  1.000000  1.000000  0.000000  0.000000  0.000000
                       0.000000  0.000000  0.000000  0.000000  0.000000  0.000000
                       1.000000  1.000000  1.000000  1.000000  1.000000  1.000000
                       1.000000  1.000000  1.000000  1.000000  1.000000  1.000000
                       1.000000  1.000000  1.000000  1.000000  1.000000  1.000000
                       1.000000  1.000000  1.000000  1.000000  1.000000  1.000000
                       1.000000  1.000000  1.000000  1.000000  1.000000  1.000000
                       1.000000  1.000000  1.000000  0.000000  0.000000  0.000000
                       0.000000  0.000000  0.000000  0.000000  0.000000  0.000000
                       1.000000  1.000000  1.000000  1.000000  1.000000  1.000000
                       1.000000  1.000000  1.000000  1.000000  1.000000  1.000000
                       1.000000  1.000000  1.000000  1.000000  1.000000  1.000000
                       1.000000  1.000000  1.000000  1.000000  1.000000  1.000000
                       1.000000  1.000000  1.000000  1.000000  1.000000  1.000000
                       1.000000  1.000000  1.000000  0.000000  0.000000  0.000000
                       0.000000  0.000000  0.000000  0.000000  0.000000  0.000000
                       1.000000  1.000000  1.000000  1.000000  1.000000  1.000000
                       1.000000  1.000000  1.000000  1.000000  1.000000  1.000000
                       1.000000  1.000000  1.000000  1.000000  1.000000  1.000000
                       1.000000  1.000000  1.000000  1.000000  1.000000  1.000000
                       1.000000  1.000000  1.000000  1.000000  1.000000  1.000000
                       1.000000  1.000000  1.000000  0.000000  0.000000  0.000000
                       0.000000  0.000000  0.000000  0.000000  0.000000  0.000000
                       1.000000  1.000000  1.000000  1.000000  1.000000  1.000000
                       1.000000  1.000000  1.000000  1.000000  1.000000  1.000000
                       1.000000  1.000000  1.000000  1.000000  1.000000  1.000000
                       1.000000  1.000000  1.000000  1.000000  1.000000  1.000000
                       1.000000  1.000000  1.000000  1.000000  1.000000  1.000000
                       1.000000  1.000000  1.000000  0.000000  0.000000  0.000000
                       0.000000  0.000000  0.000000  0.000000  0.000000  0.000000
                       1.000000  1.000000  1.000000  1.000000  1.000000  1.000000
                       1.000000  1.000000  1.000000  1.000000  1.000000  1.000000
                       1.000000  1.000000  1.000000  1.000000  1.000000  1.000000
                       1.000000  1.000000  1.000000  1.000000  1.000000  1.000000
                       1.000000  1.000000  1.000000  1.000000  1.000000  1.000000
                       1.000000  1.000000  1.000000  0.000000  0.000000  0.000000
                       0.000000  0.000000  0.000000  0.000000  0.000000  0.000000
                       1.000000  1.000000  1.000000  1.000000  1.000000  1.000000
                       1.000000  1.000000  1.000000  1.000000  1.000000  1.000000
                       1.000000  1.000000  1.000000  1.000000  1.000000  1.000000
                       1.000000  1.000000  1.000000  1.000000  1.000000  1.000000
                       1.000000  1.000000  1.000000  1.000000  1.000000  1.000000
                       1.000000  1.000000  1.000000  0.000000  0.000000  0.000000
                       0.000000  0.000000  0.000000  0.000000  0.000000  0.000000
                       1.000000  1.000000  1.000000  1.000000  1.000000  1.000000
                       1.000000  1.000000  1.000000  1.000000  1.000000  1.000000
                       1.000000  1.000000  1.000000  1.000000  1.000000  1.000000
                       1.000000  1.000000  1.000000  1.000000  1.000000  1.000000
                       1.000000  1.000000  1.000000  1.000000  1.000000  1.000000
                       1.000000  1.000000  1.000000  0.000000  0.000000  0.000000
                       0.000000  0.000000  0.000000  0.000000  0.000000  0.000000
           occopt           7
        pawecutdg      4.00000000E+01 Hartree
          pawovlp      1.0000000000E+01
           shiftk1     0.00000000E+00  0.00000000E+00  5.00000000E-01
           shiftk2     5.00000000E-01  5.00000000E-01  5.00000000E-01
          spgroup           1
           spinat      0.0000000000E+00  0.0000000000E+00  1.0000000000E+00
                       0.0000000000E+00  0.0000000000E+00  0.0000000000E+00
                       0.0000000000E+00  0.0000000000E+00  0.0000000000E+00
                       0.0000000000E+00  0.0000000000E+00  0.0000000000E+00
                       0.0000000000E+00  0.0000000000E+00  0.0000000000E+00
                       0.0000000000E+00  0.0000000000E+00  0.0000000000E+00
                       0.0000000000E+00  0.0000000000E+00  0.0000000000E+00
                       0.0000000000E+00  0.0000000000E+00  0.0000000000E+00
                       0.0000000000E+00  0.0000000000E+00  0.0000000000E+00
                       0.0000000000E+00  0.0000000000E+00  0.0000000000E+00
                       0.0000000000E+00  0.0000000000E+00  0.0000000000E+00
                       0.0000000000E+00  0.0000000000E+00  0.0000000000E+00
                       0.0000000000E+00  0.0000000000E+00  0.0000000000E+00
                       0.0000000000E+00  0.0000000000E+00  0.0000000000E+00
                       0.0000000000E+00  0.0000000000E+00  0.0000000000E+00
                       0.0000000000E+00  0.0000000000E+00  0.0000000000E+00
                       0.0000000000E+00  0.0000000000E+00  0.0000000000E+00
                       0.0000000000E+00  0.0000000000E+00 -1.0000000000E+00
           toldfe1     1.00000000E-06 Hartree
           toldfe2     0.00000000E+00 Hartree
           tolwfr1     0.00000000E+00
           tolwfr2     1.00000000E-12
            typat      2  1  1  1  1  1  1  1  1  1  1  1  1  1  1  1  1  2
           useylm           1
              wtk1       0.06667    0.06667    0.06667    0.06667    0.06667    0.06667
                         0.06667    0.06667    0.06667    0.06667    0.06667    0.06667
                         0.06667    0.06667    0.06667
              wtk2       1.00000    1.00000    1.00000    1.00000    1.00000    1.00000
                         1.00000    1.00000    1.00000    1.00000    1.00000    1.00000
                         1.00000    1.00000    1.00000    1.00000
           xangst      2.1924687653E-06 -8.9347127982E+00  1.2253261414E+00
                      -6.3335522880E-06 -7.8374663590E+00  1.2252914015E+00
                      -1.2466279888E-05 -7.1553103483E+00 -9.0703680259E-03
                      -2.4889138031E-05 -5.7095725410E+00 -9.0145181006E-03
                      -3.0871693702E-05 -5.0013301057E+00  1.2253608862E+00
                      -4.2554247256E-05 -3.5682760068E+00  1.2253671991E+00
                      -4.7331677516E-05 -2.8569447694E+00 -8.9956653736E-03
                      -5.1814279312E-05 -1.4267271463E+00 -8.9761860125E-03
                      -5.0440741501E-05 -7.1470430595E-01  1.2253949192E+00
                      -3.9645629859E-05  7.1487653105E-01  1.2253974953E+00
                      -3.1339882842E-05  1.4268988477E+00 -8.9725857920E-03
                      -1.2927341998E-05  2.8571142755E+00 -8.9900137798E-03
                      -3.8630326290E-06  3.5684443157E+00  1.2253733133E+00
                       1.1398425826E-05  5.0014956819E+00  1.2253679131E+00
                       1.7259567710E-05  5.7097392667E+00 -9.0075717678E-03
                       2.3882826847E-05  7.1554797931E+00 -9.0650236494E-03
                       2.4511032039E-05  7.8376359584E+00  1.2252964978E+00
                       2.2583175635E-05  8.9348828407E+00  1.2253293079E+00
            xcart      4.1431655213E-06 -1.6884160265E+01  2.3155308307E+00
                      -1.1968679273E-05 -1.4810664994E+01  2.3154651818E+00
                      -2.3557854884E-05 -1.3521576954E+01 -1.7140511493E-02
                      -4.7033654562E-05 -1.0789528438E+01 -1.7034970430E-02
                      -5.8339046355E-05 -9.4511441999E+00  2.3155964889E+00
                      -8.0415873105E-05 -6.7430644194E+00  2.3156084185E+00
                      -8.9443907915E-05 -5.3988431909E+00 -1.6999343939E-02
                      -9.7914797673E-05 -2.6961235729E+00 -1.6962533281E-02
                      -9.5319187377E-05 -1.3505954042E+00  2.3156608019E+00
                      -7.4919382799E-05  1.3509208625E+00  2.3156656700E+00
                      -5.9223795608E-05  2.6964480415E+00 -1.6955729851E-02
                      -2.4429136002E-05  5.3991635111E+00 -1.6988663975E-02
                      -7.3000737112E-06  6.7433824771E+00  2.3156199727E+00
                       2.1539903157E-05  9.4514570936E+00  2.3156097678E+00
                       3.2615856144E-05  1.0789843504E+01 -1.7021843763E-02
                       4.5132002020E-05  1.3521897158E+01 -1.7130412085E-02
                       4.6319137788E-05  1.4810985491E+01  2.3154748124E+00
                       4.2676017161E-05  1.6884481598E+01  2.3155368145E+00
             xred      1.4616458439E-07 -2.5527750852E-01  4.9634001573E-01
                      -4.2223681918E-07 -2.2392761026E-01  4.9632594372E-01
                      -8.3108532585E-07 -2.0443743852E-01 -3.6741129211E-03
                      -1.6592758687E-06 -1.6313064403E-01 -3.6514899215E-03
                      -2.0581129135E-06 -1.4289514588E-01  4.9635408973E-01
                      -2.8369498171E-06 -1.0195074305E-01  4.9635664688E-01
                      -3.1554451678E-06 -8.1626993411E-02 -3.6438532911E-03
                      -3.4542852875E-06 -4.0763632751E-02 -3.6359628316E-03
                      -3.3627161001E-06 -2.0420123027E-02  4.9636787540E-01
                      -2.6430419906E-06  2.0425043744E-02  4.9636891889E-01
                      -2.0893255228E-06  4.0768538506E-02 -3.6345044986E-03
                      -8.6182279989E-07  8.1631836443E-02 -3.6415640132E-03
                      -2.5753550862E-07  1.0195555188E-01  4.9635912355E-01
                       7.5989505505E-07  1.4289987663E-01  4.9635693610E-01
                       1.1506378473E-06  1.6313540762E-01 -3.6486761866E-03
                       1.5921884565E-06  2.0444227980E-01 -3.6719480869E-03
                       1.6340688026E-06  2.2393245595E-01  4.9632800807E-01
                       1.5055450423E-06  2.5528236688E-01  4.9634129838E-01
            znucl        6.00000    1.00000

================================================================================

 chkinp: Checking input parameters for consistency, jdtset=   1.

 chkinp: Checking input parameters for consistency, jdtset=   2.

================================================================================
== DATASET  1 ==================================================================
-   nproc =    1

 Exchange-correlation functional for the present dataset will be:
  LDA: Perdew-Wang 92 LSD fit to Ceperley-Alder data - ixc=7
 Citation for XC functional:
  J.P.Perdew and Y.Wang, PRB 45, 13244 (1992)

 Real(R)+Recip(G) space primitive vectors, cartesian coordinates (Bohr,Bohr^-1):
 R(1)= 28.3458920  0.0000000  0.0000000  G(1)=  0.0352785  0.0000000  0.0000000
 R(2)=  0.0000000 66.1404147  0.0000000  G(2)=  0.0000000  0.0151193  0.0000000
 R(3)=  0.0000000  0.0000000  4.6652109  G(3)=  0.0000000  0.0000000  0.2143526
 Unit cell volume ucvol=  8.7463795E+03 bohr^3
 Angles (23,13,12)=  9.00000000E+01  9.00000000E+01  9.00000000E+01 degrees

 Coarse grid specifications (used for wave-functions):

 getcut: wavevector=  0.0000  0.0000  0.0000  ngfft=  96 225  16
         ecut(hartree)=     14.000   => boxcut(ratio)=   2.01072

 Fine grid specifications (used for densities):

 getcut: wavevector=  0.0000  0.0000  0.0000  ngfft= 162 384  30
         ecut(hartree)=     40.000   => boxcut(ratio)=   2.00738

--- Pseudopotential description ------------------------------------------------
- pspini: atom type   1  psp file is ../C.LDA_PW-JTH.xml
- pspatm: opening atomic psp file    ../C.LDA_PW-JTH.xml
- pspatm : Reading pseudopotential header in XML form from ../C.LDA_PW-JTH.xml
 Pseudopotential format is: paw10
 basis_size (lnmax)=  4 (lmn_size=  8), orbitals=   0   0   1   1
 Spheres core radius: rc_sph= 1.50736703
 1 radial meshes are used:
  - mesh 1: r(i)=AA*[exp(BB*(i-1))-1], size=2001 , AA= 0.94549E-03 BB= 0.56729E-02
 Shapefunction is SIN type: shapef(r)=[sin(pi*r/rshp)/(pi*r/rshp)]**2
 Radius for shape functions =  1.30052589
 mmax= 2001
 Radial grid used for partial waves is grid 1
 Radial grid used for projectors is grid 1
 Radial grid used for (t)core density is grid 1
 Radial grid used for Vloc is grid 1
 Radial grid used for pseudo valence density is grid 1
 Mesh size for Vloc has been set to 1756 to avoid numerical noise.
 Compensation charge density is not taken into account in XC energy/potential
 pspatm: atomic psp has been read  and splines computed

- pspini: atom type   2  psp file is ../H.LDA_PW-JTH.xml
- pspatm: opening atomic psp file    ../H.LDA_PW-JTH.xml
- pspatm : Reading pseudopotential header in XML form from ../H.LDA_PW-JTH.xml
 Pseudopotential format is: paw10
 basis_size (lnmax)=  3 (lmn_size=  5), orbitals=   0   0   1
 Spheres core radius: rc_sph= 0.89889493
 1 radial meshes are used:
  - mesh 1: r(i)=AA*[exp(BB*(i-1))-1], size=1500 , AA= 0.63034E-02 BB= 0.63034E-02
 Shapefunction is SIN type: shapef(r)=[sin(pi*r/rshp)/(pi*r/rshp)]**2
 Radius for shape functions =  0.79672474
 mmax= 1500
 Radial grid used for partial waves is grid 1
 Radial grid used for projectors is grid 1
 Radial grid used for (t)core density is grid 1
 Radial grid used for Vloc is grid 1
 Radial grid used for pseudo valence density is grid 1
 Mesh size for Vloc has been set to 1280 to avoid numerical noise.
 Compensation charge density is not taken into account in XC energy/potential
 pspatm: atomic psp has been read  and splines computed

   4.65654704E+03                                ecore*ucvol(ha*bohr**3)
--------------------------------------------------------------------------------

_setup2: Arith. and geom. avg. npw (full set) are   21881.333   21880.837

================================================================================

     iter   Etot(hartree)     deltaE(h) residm    nres2    magn
 ETOT  1  -93.540339168792    -9.35E+01 5.09E-02 1.06E+02 0.009
 ETOT  2  -93.337449901585     2.03E-01 7.27E-03 1.08E+01 0.015
 ETOT  3  -93.305475939756     3.20E-02 2.55E-03 1.82E+00 0.037
 ETOT  4  -93.307007089125    -1.53E-03 5.05E-03 1.28E+00 0.004
 ETOT  5  -93.307287913479    -2.81E-04 5.94E-04 9.93E-01 0.006
 ETOT  6  -93.306693615912     5.94E-04 3.81E-04 1.49E-01 0.006
 ETOT  7  -93.307316706587    -6.23E-04 2.86E-04 8.45E-02 0.008
 ETOT  8  -93.307713032505    -3.96E-04 1.42E-03 4.37E-02 0.004
 ETOT  9  -93.307623404269     8.96E-05 1.92E-04 2.31E-02 0.003
 ETOT 10  -93.306598608302     1.02E-03 1.40E-04 1.88E-02 0.004
 ETOT 11  -93.305508987745     1.09E-03 1.23E-04 9.16E-03 0.003
 ETOT 12  -93.304732349169     7.77E-04 4.80E-05 8.07E-03 0.003
 ETOT 13  -93.303543592501     1.19E-03 2.12E-05 4.14E-03 0.002
 ETOT 14  -93.301907986464     1.64E-03 4.84E-05 1.53E-03 0.001
 ETOT 15  -93.301564018756     3.44E-04 2.78E-04 1.01E-03 0.001
 ETOT 16  -93.301417704983     1.46E-04 1.78E-03 6.95E-04 0.001
 ETOT 17  -93.301276638082     1.41E-04 5.52E-05 4.45E-04 0.000
 ETOT 18  -93.301307239544    -3.06E-05 3.95E-05 2.67E-04 0.000
 ETOT 19  -93.301291009559     1.62E-05 3.46E-05 1.30E-04 0.000
 ETOT 20  -93.301288248892     2.76E-06 2.35E-05 1.16E-04 0.000
 ETOT 21  -93.301203205712     8.50E-05 7.91E-05 7.14E-05 0.000
 ETOT 22  -93.301184657427     1.85E-05 4.84E-04 3.10E-05 0.000
 ETOT 23  -93.301165856931     1.88E-05 3.13E-04 1.70E-05 0.000
 ETOT 24  -93.301154298515     1.16E-05 2.71E-05 9.38E-06 0.000
 ETOT 25  -93.301147413492     6.89E-06 4.37E-05 5.80E-06 0.000
 ETOT 26  -93.301143023351     4.39E-06 3.09E-05 2.55E-06 0.000
 ETOT 27  -93.301141714465     1.31E-06 4.96E-05 1.58E-06 0.000
 ETOT 28  -93.301140487725     1.23E-06 8.85E-05 6.57E-07 0.000
 ETOT 29  -93.301140196575     2.91E-07 5.21E-05 3.31E-07 0.000
 ETOT 30  -93.301140031487     1.65E-07 3.80E-05 1.25E-07 0.000

 At SCF step   30, etot is converged : 
  for the second time, diff in etot=  1.651E-07 < toldfe=  1.000E-06

 Cartesian components of stress tensor (hartree/bohr^3)
  sigma(1 1)=  1.37438733E-05  sigma(3 2)=  4.30563702E-10
  sigma(2 2)=  5.63057191E-05  sigma(3 1)=  1.53072344E-11
  sigma(3 3)=  6.41200364E-05  sigma(2 1)=  9.45898887E-11

 Integrated electronic and magnetization densities in atomic spheres:
 ---------------------------------------------------------------------
 Note: Diff(up-dn) is a rough approximation of local magnetic moment
 Atom    Radius    up_density   dn_density  Total(up+dn)  Diff(up-dn)
    1   0.89889     0.221880     0.221878      0.443757     0.000002
    2   1.50737     1.350800     1.350935      2.701736    -0.000135
    3   1.50737     1.365043     1.365020      2.730063     0.000024
    4   1.50737     1.359275     1.359307      2.718582    -0.000032
    5   1.50737     1.359435     1.359423      2.718858     0.000011
    6   1.50737     1.360395     1.360405      2.720800    -0.000010
    7   1.50737     1.363379     1.363373      2.726752     0.000006
    8   1.50737     1.363413     1.363418      2.726831    -0.000005
    9   1.50737     1.360076     1.360072      2.720149     0.000004
   10   1.50737     1.360071     1.360074      2.720145    -0.000004
   11   1.50737     1.363395     1.363390      2.726785     0.000005
   12   1.50737     1.363616     1.363620      2.727236    -0.000004
   13   1.50737     1.360408     1.360401      2.720809     0.000007
   14   1.50737     1.359423     1.359431      2.718854    -0.000008
   15   1.50737     1.359306     1.359285      2.718592     0.000021
   16   1.50737     1.365017     1.365033      2.730050    -0.000015
   17   1.50737     1.350257     1.350171      2.700427     0.000086
   18   0.89889     0.221927     0.221928      0.443855    -0.000001
 ---------------------------------------------------------------------
  Sum:             22.207117    22.207166     44.414283    -0.000049
 Total magnetization (from the atomic spheres):            -0.000049
 Total magnetization (exact up - dn):                      -0.000094

 PAW TEST:
 ==== Compensation charge inside spheres ============
 The following values must be close to each other ...
 Compensation charge over spherical meshes =      2.133250844500004
 Compensation charge over fine fft grid    =      2.133225036789168

 ==== Results concerning PAW augmentation regions ====

 Total pseudopotential strength Dij (hartree):
 Atom #  1 - Spin component 1
  -0.01694  -0.02553  -0.00023  -0.00000   0.00000
  -0.02553  -0.03831  -0.00036  -0.00000   0.00000
  -0.00023  -0.00036   0.00065   0.00000   0.00000
  -0.00000  -0.00000   0.00000   0.00067   0.00000
   0.00000   0.00000   0.00000   0.00000   0.00067
 Atom #  1 - Spin component 2
  -0.01694  -0.02553  -0.00023  -0.00000   0.00000
  -0.02553  -0.03831  -0.00036  -0.00000   0.00000
  -0.00023  -0.00036   0.00065   0.00000   0.00000
  -0.00000  -0.00000   0.00000   0.00067   0.00000
   0.00000   0.00000   0.00000   0.00000   0.00067
 Atom # 18 - Spin component 1
  -0.01694  -0.02553   0.00023  -0.00000  -0.00000
  -0.02553  -0.03831   0.00036  -0.00000  -0.00000
   0.00023   0.00036   0.00065  -0.00000   0.00000
  -0.00000  -0.00000  -0.00000   0.00067   0.00000
  -0.00000  -0.00000   0.00000   0.00000   0.00067
 Atom # 18 - Spin component 2
  -0.01694  -0.02553   0.00023  -0.00000  -0.00000
  -0.02553  -0.03831   0.00036  -0.00000  -0.00000
   0.00023   0.00036   0.00065  -0.00000   0.00000
  -0.00000  -0.00000  -0.00000   0.00067   0.00000
  -0.00000  -0.00000   0.00000   0.00000   0.00067


 Augmentation waves occupancies Rhoij:
 Atom #  1 - Spin component 1
   8.22259  -3.58539   1.03492  -0.00003  -0.00001
  -3.58539   1.57096  -0.45616   0.00001   0.00000
   1.03492  -0.45616   0.13472  -0.00000  -0.00000
  -0.00003   0.00001  -0.00000   0.02256   0.00000
  -0.00001   0.00000  -0.00000   0.00000   0.02893
 Atom #  1 - Spin component 2
   8.22259  -3.58540   1.03492  -0.00003  -0.00001
  -3.58540   1.57097  -0.45616   0.00001   0.00000
   1.03492  -0.45616   0.13472  -0.00000  -0.00000
  -0.00003   0.00001  -0.00000   0.02256   0.00000
  -0.00001   0.00000  -0.00000   0.00000   0.02894
 Atom # 18 - Spin component 1
   8.22259  -3.58540  -1.03492  -0.00003   0.00000
  -3.58540   1.57097   0.45616   0.00001  -0.00000
  -1.03492   0.45616   0.13472   0.00000  -0.00000
  -0.00003   0.00001   0.00000   0.02256   0.00000
   0.00000  -0.00000  -0.00000   0.00000   0.02894
 Atom # 18 - Spin component 2
   8.22260  -3.58540  -1.03492  -0.00003   0.00000
  -3.58540   1.57096   0.45616   0.00001  -0.00000
  -1.03492   0.45616   0.13472   0.00000  -0.00000
  -0.00003   0.00001   0.00000   0.02256   0.00000
   0.00000  -0.00000  -0.00000   0.00000   0.02893


================================================================================

 ----iterations are completed or convergence reached----

 Mean square residual over all n,k,spin=   8.0737E-08; max=  3.7997E-05
 reduced coordinates (array xred) for   18 atoms
       0.000000146165     -0.255277508520      0.496340015734
      -0.000000422237     -0.223927610257      0.496325943723
      -0.000000831085     -0.204437438523     -0.003674112921
      -0.000001659276     -0.163130644029     -0.003651489922
      -0.000002058113     -0.142895145877      0.496354089729
      -0.000002836950     -0.101950743051      0.496356646881
      -0.000003155445     -0.081626993411     -0.003643853291
      -0.000003454285     -0.040763632751     -0.003635962832
      -0.000003362716     -0.020420123027      0.496367875398
      -0.000002643042      0.020425043744      0.496368918893
      -0.000002089326      0.040768538506     -0.003634504499
      -0.000000861823      0.081631836443     -0.003641564013
      -0.000000257536      0.101955551877      0.496359123546
       0.000000759895      0.142899876626      0.496356936099
       0.000001150638      0.163135407620     -0.003648676187
       0.000001592188      0.204442279803     -0.003671948087
       0.000001634069      0.223932455954      0.496328008070
       0.000001505545      0.255282366877      0.496341298381
 rms dE/dt=  1.7202E-01; max dE/dt=  8.8791E-01; dE/dt below (all hartree)
    1      -0.000001684479      0.074247950113     -0.000037195283
    2       0.000008306655     -0.887952773562      0.000111451592
    3      -0.000003953270     -0.034159123309     -0.000007735725
    4      -0.000003278681     -0.051032699288     -0.000008120543
    5       0.000002497541      0.014085641267      0.000151245085
    6      -0.000001270030     -0.005378680504      0.000114561947
    7      -0.000004182426      0.026244925670      0.000002140282
    8      -0.000015193827     -0.015552818489     -0.000009561041
    9      -0.000015619575      0.008639235513      0.000175307919
   10      -0.000008162519     -0.008663632664      0.000176353207
   11      -0.000003215680      0.015639451899     -0.000007054793
   12      -0.000000988575     -0.026238791314      0.000001729383
   13       0.000003043120      0.005341384945      0.000115218962
   14       0.000003851115     -0.014376030622      0.000151420702
   15       0.000005371309      0.050995929377     -0.000007329825
   16       0.000014709157      0.034262636290     -0.000009300086
   17       0.000004119244      0.887909247185      0.000109718283
   18      -0.000007058750     -0.074174193603     -0.000037791371

 cartesian coordinates (angstrom) at end:
    1      0.00000219246877    -8.93471279820000     1.22532614140000
    2     -0.00000633355229    -7.83746635900000     1.22529140150000
    3     -0.00001246627989    -7.15531034830000    -0.00907036802590
    4     -0.00002488913803    -5.70957254100000    -0.00901451810060
    5     -0.00003087169370    -5.00133010570000     1.22536088620000
    6     -0.00004255424726    -3.56827600680000     1.22536719910000
    7     -0.00004733167752    -2.85694476940000    -0.00899566537360
    8     -0.00005181427931    -1.42672714630000    -0.00897618601250
    9     -0.00005044074150    -0.71470430595000     1.22539491920000
   10     -0.00003964562986     0.71487653105000     1.22539749530000
   11     -0.00003133988284     1.42689884770000    -0.00897258579200
   12     -0.00001292734200     2.85711427550000    -0.00899001377980
   13     -0.00000386303263     3.56844431570000     1.22537331330000
   14      0.00001139842583     5.00149568190000     1.22536791310000
   15      0.00001725956771     5.70973926670000    -0.00900757176780
   16      0.00002388282685     7.15547979310000    -0.00906502364940
   17      0.00002451103204     7.83763595840000     1.22529649780000
   18      0.00002258317563     8.93488284070000     1.22532930790000

 cartesian forces (hartree/bohr) at end:
    1      0.00000001491682    -0.00112271701734     0.00001970345373
    2     -0.00000033755521     0.01342513135573    -0.00001215938808
    3      0.00000009495631     0.00051632733994     0.00001338872132
    4      0.00000007115785     0.00077144482096     0.00001347120801
    5     -0.00000013261850    -0.00021310208427    -0.00002068922609
    6      0.00000000029569     0.00008118578607    -0.00001282610072
    7      0.00000010304060    -0.00039694254653     0.00001127177376
    8      0.00000049150610     0.00023501212717     0.00001377998251
    9      0.00000050652584    -0.00013075597588    -0.00002584715660
   10      0.00000024345223     0.00013085212362    -0.00002607121684
   11      0.00000006893527    -0.00023659468921     0.00001324276177
   12     -0.00000000963363     0.00039657707776     0.00001135985090
   13     -0.00000015186571    -0.00008089462280    -0.00001296693348
   14     -0.00000018037051     0.00021721986093    -0.00002072687007
   15     -0.00000023400065    -0.00077116160514     0.00001330171562
   16     -0.00000056342575    -0.00051816511011     0.00001372404618
   17     -0.00000018982970    -0.01342474598655    -0.00001178784870
   18      0.00000020451295     0.00112132914564     0.00001983122676
 frms,max,avg= 2.6008250E-03 1.3425131E-02   4.451E-08  1.364E-07 -1.173E-05 h/b

 cartesian forces (eV/Angstrom) at end:
    1      0.00000076705372    -0.05773242541263     0.00101319224294
    2     -0.00001735778511     0.69034795293815    -0.00062526082224
    3      0.00000488284916     0.02655061710211     0.00068847567372
    4      0.00000365908329     0.03966928433278     0.00069271730949
    5     -0.00000681951671    -0.01095814884381    -0.00106388269155
    6      0.00000001520499     0.00417474062136    -0.00065954456162
    7      0.00000529856007    -0.02041160471122     0.00057961786281
    8      0.00002527425786     0.01208480845449     0.00070859513132
    9      0.00002604660359    -0.00672374205464    -0.00132911411979
   10      0.00001251881614     0.00672868616968    -0.00134063575966
   11      0.00000354479361    -0.01216618705934     0.00068097013274
   12     -0.00000049538095     0.02039281155314     0.00058414697072
   13     -0.00000780924804    -0.00415976840546    -0.00066678647274
   14     -0.00000927502391     0.01116989341550    -0.00106581842254
   15     -0.00001203279612    -0.03965472079076     0.00068400166137
   16     -0.00002897251449    -0.02664511903584     0.00070571876983
   17     -0.00000976143490    -0.69032813645988    -0.00060615550066
   18      0.00001051647781     0.05766105818638     0.00101976259587
 frms,max,avg= 1.3373979E-01 6.9034795E-01   2.289E-06  7.012E-06 -6.032E-04 e/A
 length scales= 28.345891993000 66.140414651000  4.665210858100 bohr
              = 14.999999999849 35.000000000001  2.468723259373 angstroms
 prteigrs : about to open file zgnro_DS1_EIG
 Fermi (or HOMO) energy (hartree) =  -0.12290   Average Vxc (hartree)=  -0.07124
 Magnetization (Bohr magneton)=  9.44054345E-05
 Total spin up =  3.29999528E+01   Total spin down =  3.30000472E+01
 Eigenvalues (hartree) for nkpt=  15  k points, SPIN UP:
 kpt#   1, nband= 42, wtk=  0.06667, kpt=  0.0000  0.0000  0.0167 (reduced coord)
  -0.82456   -0.81443   -0.79923   -0.77880   -0.75312   -0.72244   -0.68758   -0.65260
  -0.58169   -0.53897   -0.49040   -0.43908   -0.39546   -0.38694   -0.38401   -0.36670
  -0.35275   -0.34402   -0.34363   -0.33654   -0.33098   -0.31523   -0.31395   -0.29443
  -0.29096   -0.28262   -0.27278   -0.25645   -0.25312   -0.24847   -0.23898   -0.23710
  -0.21957   -0.04588   -0.01075    0.00542    0.00841    0.01038    0.02046    0.02400
   0.02691    0.03331
      occupation numbers for kpt#   1
   1.00000    1.00000    1.00000    1.00000    1.00000    1.00000    1.00000    1.00000
   1.00000    1.00000    1.00000    1.00000    1.00000    1.00000    1.00000    1.00000
   1.00000    1.00000    1.00000    1.00000    1.00000    1.00000    1.00000    1.00000
   1.00000    1.00000    1.00000    1.00000    1.00000    1.00000    1.00000    1.00000
   1.00000    0.00000    0.00000    0.00000    0.00000    0.00000    0.00000    0.00000
   0.00000    0.00000
 prteigrs : prtvol=0 or 1, do not print more k-points.

 Eigenvalues (hartree) for nkpt=  15  k points, SPIN DOWN:
 kpt#   1, nband= 42, wtk=  0.06667, kpt=  0.0000  0.0000  0.0167 (reduced coord)
  -0.82456   -0.81443   -0.79923   -0.77880   -0.75312   -0.72244   -0.68758   -0.65260
  -0.58169   -0.53897   -0.49040   -0.43908   -0.39546   -0.38694   -0.38401   -0.36670
  -0.35275   -0.34402   -0.34363   -0.33654   -0.33098   -0.31523   -0.31395   -0.29443
  -0.29097   -0.28262   -0.27278   -0.25645   -0.25312   -0.24847   -0.23898   -0.23710
  -0.21957   -0.04588   -0.01075    0.00542    0.00841    0.01038    0.02046    0.02400
   0.02691    0.03331
      occupation numbers for kpt#   1
   1.00000    1.00000    1.00000    1.00000    1.00000    1.00000    1.00000    1.00000
   1.00000    1.00000    1.00000    1.00000    1.00000    1.00000    1.00000    1.00000
   1.00000    1.00000    1.00000    1.00000    1.00000    1.00000    1.00000    1.00000
   1.00000    1.00000    1.00000    1.00000    1.00000    1.00000    1.00000    1.00000
   1.00000    0.00000    0.00000    0.00000    0.00000    0.00000    0.00000    0.00000
   0.00000    0.00000
 prteigrs : prtvol=0 or 1, do not print more k-points.


--------------------------------------------------------------------------------
 Components of total free energy (in Hartree) :

    Kinetic energy  =  5.52616541351482E+01
    Hartree energy  =  5.69200216578036E+02
    XC energy       = -3.44258747570539E+01
    Ewald energy    =  4.96893947207394E+02
    PspCore energy  =  5.32397092867825E-01
    Loc. psp. energy= -1.19244597144126E+03
    Spherical terms =  1.16856260985875E+01
    >>>>> Internal E= -9.32980050862778E+01

    -kT*entropy     = -3.12575822866321E-03
    >>>>>>>>> Etotal= -9.33011308445065E+01

 "Double-counting" decomposition of free energy:
    Band energy     = -2.94763833668017E+01
    Ewald energy    =  4.96893947207394E+02
    PspCore energy  =  5.32397092867825E-01
    Dble-C XC-energy= -5.67411142479347E+02
    Spherical terms =  6.16316727262797E+00
    >>>>> Internal E= -9.32980142732582E+01

    -kT*entropy     = -3.12575822866321E-03
    >>>> Etotal (DC)= -9.33011400314869E+01

  >Total energy in eV           = -2.53885288598195E+03
  >Total DC energy in eV        = -2.53885313597240E+03
--------------------------------------------------------------------------------

 Cartesian components of stress tensor (hartree/bohr^3)
  sigma(1 1)=  1.37438733E-05  sigma(3 2)=  4.30563702E-10
  sigma(2 2)=  5.63057191E-05  sigma(3 1)=  1.53072344E-11
  sigma(3 3)=  6.41200364E-05  sigma(2 1)=  9.45898887E-11

-Cartesian components of stress tensor (GPa)         [Pressure= -1.3158E+00 GPa]
- sigma(1 1)=  4.04358646E-01  sigma(3 2)=  1.26676193E-05
- sigma(2 2)=  1.65657117E+00  sigma(3 1)=  4.50354309E-07
- sigma(3 3)=  1.88647628E+00  sigma(2 1)=  2.78293014E-06

================================================================================
== DATASET  2 ==================================================================
-   nproc =    1

 mkfilename : getden/=0, take file _DEN from output of DATASET   1.

 Exchange-correlation functional for the present dataset will be:
  LDA: Perdew-Wang 92 LSD fit to Ceperley-Alder data - ixc=7
 Citation for XC functional:
  J.P.Perdew and Y.Wang, PRB 45, 13244 (1992)

 Real(R)+Recip(G) space primitive vectors, cartesian coordinates (Bohr,Bohr^-1):
 R(1)= 28.3458920  0.0000000  0.0000000  G(1)=  0.0352785  0.0000000  0.0000000
 R(2)=  0.0000000 66.1404147  0.0000000  G(2)=  0.0000000  0.0151193  0.0000000
 R(3)=  0.0000000  0.0000000  4.6652109  G(3)=  0.0000000  0.0000000  0.2143526
 Unit cell volume ucvol=  8.7463795E+03 bohr^3
 Angles (23,13,12)=  9.00000000E+01  9.00000000E+01  9.00000000E+01 degrees

 Coarse grid specifications (used for wave-functions):

 getcut: wavevector=  0.0000  0.0000  0.0000  ngfft=  96 225  16
         ecut(hartree)=     14.000   => boxcut(ratio)=   2.01072

 Fine grid specifications (used for densities):

 getcut: wavevector=  0.0000  0.0000  0.0000  ngfft= 162 384  30
         ecut(hartree)=     40.000   => boxcut(ratio)=   2.00738
--------------------------------------------------------------------------------


================================================================================
 prteigrs : about to open file zgnro_DS2_EIG

 SPIN UP channel
 Non-SCF case, kpt    1 (  0.00000  0.00000  0.00000), residuals and eigenvalues=
  6.91E-13  5.06E-13  8.02E-13  7.91E-13  5.47E-13  6.59E-13  2.35E-13  8.87E-13
  1.72E-13  3.08E-13  1.93E-13  2.38E-13  4.85E-13  2.77E-13  4.00E-13  2.31E-13
  7.67E-13  9.68E-13  9.83E-13  7.24E-13  4.32E-13  7.09E-13  1.53E-13  4.64E-13
  2.03E-13  8.33E-13  4.64E-13  6.04E-13  7.47E-13  2.58E-13  3.73E-13  2.00E-13
  6.57E-13  3.95E-13  8.70E-13  8.21E-13  6.86E-13  7.74E-13  4.78E-09  2.05E-08
 -8.2475E-01 -8.1462E-01 -7.9942E-01 -7.7898E-01 -7.5330E-01 -7.2262E-01
 -6.8775E-01 -6.5276E-01 -5.8185E-01 -5.3912E-01 -4.9052E-01 -4.3918E-01
 -3.9569E-01 -3.8698E-01 -3.8423E-01 -3.6692E-01 -3.5196E-01 -3.4384E-01
 -3.4322E-01 -3.3648E-01 -3.3021E-01 -3.1545E-01 -3.1323E-01 -2.9322E-01
 -2.9132E-01 -2.8283E-01 -2.7199E-01 -2.5631E-01 -2.5239E-01 -2.4869E-01
 -2.3830E-01 -2.3680E-01 -2.1980E-01 -4.5848E-02 -1.0729E-02  5.1958E-03
  8.2128E-03  1.0166E-02  2.0241E-02  2.3805E-02
  prteigrs : nnsclo,ikpt=   80    1 max resid (incl. the buffer)=  2.05408E-08
 Non-SCF case, kpt    2 (  0.00000  0.00000  0.03333), residuals and eigenvalues=
  4.59E-13  7.53E-13  4.16E-13  2.50E-13  4.33E-13  8.47E-13  1.64E-13  6.98E-13
  3.44E-13  1.72E-13  3.22E-13  4.95E-13  1.58E-13  5.79E-13  5.13E-13  7.20E-13
  9.22E-13  4.30E-13  6.03E-13  3.46E-13  5.44E-13  1.41E-13  3.63E-13  6.00E-13
  5.14E-13  2.97E-13  6.50E-13  6.47E-13  3.31E-13  6.82E-13  9.95E-13  6.25E-13
  5.29E-13  3.77E-13  5.51E-13  7.34E-13  9.66E-13  7.71E-13  1.48E-09  5.53E-08
 -8.2403E-01 -8.1390E-01 -7.9871E-01 -7.7828E-01 -7.5260E-01 -7.2193E-01
 -6.8709E-01 -6.5213E-01 -5.8124E-01 -5.3856E-01 -4.9005E-01 -4.3884E-01
 -3.9483E-01 -3.8688E-01 -3.8337E-01 -3.6607E-01 -3.5513E-01 -3.4640E-01
 -3.4300E-01 -3.3678E-01 -3.3330E-01 -3.1610E-01 -3.1461E-01 -2.9724E-01
 -2.9080E-01 -2.8199E-01 -2.7515E-01 -2.5696E-01 -2.5531E-01 -2.4784E-01
 -2.4106E-01 -2.3799E-01 -2.1893E-01 -4.6002E-02 -1.0829E-02  6.1513E-03
  9.1257E-03  1.1105E-02  2.1184E-02  2.4760E-02
  prteigrs : nnsclo,ikpt=   80    2 max resid (incl. the buffer)=  5.53361E-08
 Non-SCF case, kpt    3 (  0.00000  0.00000  0.06667), residuals and eigenvalues=
  6.98E-13  4.57E-13  4.51E-13  5.55E-13  3.82E-13  5.94E-13  2.19E-13  9.75E-13
  3.80E-13  8.43E-13  5.49E-13  4.11E-13  3.59E-13  3.53E-13  1.65E-13  2.75E-13
  3.31E-13  4.13E-13  8.15E-13  3.49E-13  4.67E-13  9.49E-13  6.30E-13  7.93E-13
  5.15E-13  8.79E-13  6.07E-13  5.50E-13  7.69E-13  7.44E-13  5.72E-13  5.41E-13
  4.56E-13  6.98E-13  8.44E-13  7.31E-13  8.70E-13  7.48E-13  8.54E-10  1.09E-08
 -8.2188E-01 -8.1175E-01 -7.9657E-01 -7.7616E-01 -7.5051E-01 -7.1988E-01
 -6.8510E-01 -6.5024E-01 -5.7942E-01 -5.3690E-01 -4.8866E-01 -4.3790E-01
 -3.9224E-01 -3.8671E-01 -3.8079E-01 -3.6428E-01 -3.6350E-01 -3.5550E-01
 -3.4214E-01 -3.4046E-01 -3.3833E-01 -3.2391E-01 -3.1209E-01 -3.0645E-01
 -2.9193E-01 -2.8391E-01 -2.7950E-01 -2.6344E-01 -2.5963E-01 -2.4866E-01
 -2.4534E-01 -2.4159E-01 -2.1636E-01 -4.6530E-02 -1.1225E-02  9.0094E-03
  1.1850E-02  1.3918E-02  2.4007E-02  2.7615E-02
  prteigrs : nnsclo,ikpt=   80    3 max resid (incl. the buffer)=  1.08685E-08
 Non-SCF case, kpt    4 (  0.00000  0.00000  0.10000), residuals and eigenvalues=
  4.10E-13  8.27E-13  5.10E-13  6.33E-13  5.95E-13  6.86E-13  1.55E-13  3.33E-13
  8.18E-13  5.85E-13  9.76E-13  2.66E-13  2.76E-13  7.51E-13  6.56E-13  1.14E-13
  6.97E-13  3.48E-13  7.43E-13  3.02E-13  5.16E-13  6.56E-13  6.63E-13  9.25E-13
  1.02E-13  1.78E-13  2.43E-13  8.43E-13  5.78E-13  8.23E-13  4.78E-13  3.60E-13
  8.25E-13  3.37E-13  9.13E-13  9.33E-13  4.05E-13  6.30E-13  2.41E-08  1.81E-05
 -8.1829E-01 -8.0818E-01 -7.9302E-01 -7.7264E-01 -7.4704E-01 -7.1647E-01
 -6.8179E-01 -6.4707E-01 -5.7641E-01 -5.3417E-01 -4.8643E-01 -4.3650E-01
 -3.8794E-01 -3.8700E-01 -3.7844E-01 -3.7652E-01 -3.6959E-01 -3.5926E-01
 -3.5565E-01 -3.4463E-01 -3.3625E-01 -3.3276E-01 -3.1983E-01 -3.0792E-01
 -2.9658E-01 -2.9574E-01 -2.7535E-01 -2.7471E-01 -2.6719E-01 -2.5775E-01
 -2.4774E-01 -2.4116E-01 -2.1205E-01 -4.7668E-02 -1.2222E-02  1.3743E-02
  1.6347E-02  1.8591E-02  2.8706E-02  2.9619E-02
  prteigrs : nnsclo,ikpt=   80    4 max resid (incl. the buffer)=  1.81340E-05
 Non-SCF case, kpt    5 (  0.00000  0.00000  0.13333), residuals and eigenvalues=
  5.39E-13  4.88E-13  1.92E-13  9.06E-13  5.00E-13  2.59E-13  8.06E-13  8.17E-13
  2.64E-13  7.99E-13  2.73E-13  6.25E-13  8.69E-13  6.78E-13  7.00E-13  4.05E-13
  1.48E-13  1.26E-13  8.58E-13  6.53E-13  2.15E-13  8.51E-13  4.03E-13  1.83E-13
  2.43E-13  6.48E-13  4.99E-13  5.60E-13  4.46E-13  9.05E-13  1.88E-13  2.78E-13
  6.28E-13  3.50E-13  5.63E-13  3.00E-13  5.25E-13  6.18E-13  9.63E-06  6.69E-07
 -8.1328E-01 -8.0319E-01 -7.8805E-01 -7.6772E-01 -7.4218E-01 -7.1171E-01
 -6.7717E-01 -6.4267E-01 -5.7231E-01 -5.3050E-01 -4.8354E-01 -4.3508E-01
 -3.9689E-01 -3.8894E-01 -3.8733E-01 -3.8194E-01 -3.7152E-01 -3.7054E-01
 -3.5915E-01 -3.5332E-01 -3.3940E-01 -3.3573E-01 -3.3037E-01 -3.1028E-01
 -3.0534E-01 -3.0211E-01 -2.8472E-01 -2.8217E-01 -2.6959E-01 -2.6478E-01
 -2.5632E-01 -2.3536E-01 -2.0606E-01 -4.9725E-02 -1.4217E-02  2.0296E-02
  2.2544E-02  2.5113E-02  2.8236E-02  3.5268E-02
  prteigrs : nnsclo,ikpt=   80    5 max resid (incl. the buffer)=  9.63379E-06
 Non-SCF case, kpt    6 (  0.00000  0.00000  0.16667), residuals and eigenvalues=
  4.81E-13  5.81E-13  2.12E-13  5.16E-13  2.53E-13  2.97E-13  5.13E-13  2.32E-13
  8.05E-13  4.43E-13  7.54E-13  1.94E-13  3.88E-13  2.34E-13  6.15E-13  8.98E-13
  7.84E-13  9.72E-13  1.13E-13  7.82E-13  1.70E-13  2.44E-13  3.44E-13  3.86E-13
  4.16E-13  8.23E-14  2.73E-13  3.22E-13  5.18E-13  4.01E-13  4.18E-13  4.96E-13
  3.29E-13  7.88E-13  4.68E-13  8.34E-13  4.51E-13  6.83E-13  6.35E-13  7.22E-13
 -8.0684E-01 -7.9677E-01 -7.8167E-01 -7.6139E-01 -7.3595E-01 -7.0561E-01
 -6.7126E-01 -6.3702E-01 -5.6723E-01 -5.2607E-01 -4.8040E-01 -4.3482E-01
 -4.1747E-01 -4.0713E-01 -3.9930E-01 -3.8466E-01 -3.7684E-01 -3.7425E-01
 -3.6288E-01 -3.5086E-01 -3.5083E-01 -3.4573E-01 -3.2289E-01 -3.2212E-01
 -3.2007E-01 -3.0110E-01 -2.9473E-01 -2.9106E-01 -2.7217E-01 -2.6711E-01
 -2.6228E-01 -2.2800E-01 -1.9842E-01 -5.3142E-02 -1.7736E-02  2.4907E-02
  2.8555E-02  3.0341E-02  3.3493E-02  4.3684E-02
 Non-SCF case, kpt    7 (  0.00000  0.00000  0.20000), residuals and eigenvalues=
  4.99E-13  3.52E-13  6.40E-13  5.49E-13  3.57E-13  1.82E-13  4.37E-13  1.84E-13
  8.69E-13  4.94E-13  2.29E-13  2.93E-13  5.90E-13  3.51E-13  3.52E-13  3.31E-13
  3.11E-13  4.93E-13  1.79E-13  1.62E-13  2.03E-13  5.08E-13  3.99E-13  5.43E-13
  5.10E-13  3.08E-13  9.51E-13  4.87E-13  2.87E-13  2.09E-13  1.88E-13  7.91E-13
  5.10E-13  5.26E-13  8.99E-13  8.91E-13  7.17E-13  8.48E-13  9.16E-12  6.19E-09
 -7.9900E-01 -7.8895E-01 -7.7390E-01 -7.5370E-01 -7.2836E-01 -6.9818E-01
 -6.6405E-01 -6.3013E-01 -5.6145E-01 -5.2135E-01 -4.7816E-01 -4.3979E-01
 -4.3938E-01 -4.2628E-01 -4.1701E-01 -3.9809E-01 -3.9264E-01 -3.6909E-01
 -3.6491E-01 -3.5995E-01 -3.5360E-01 -3.4258E-01 -3.3654E-01 -3.2505E-01
 -3.2157E-01 -3.1382E-01 -2.9642E-01 -2.8581E-01 -2.8089E-01 -2.7975E-01
 -2.5348E-01 -2.1915E-01 -1.8917E-01 -5.8397E-02 -2.3336E-02  1.8590E-02
  3.8322E-02  3.9592E-02  4.3778E-02  5.3996E-02
  prteigrs : nnsclo,ikpt=   80    7 max resid (incl. the buffer)=  6.18930E-09
 Non-SCF case, kpt    8 (  0.00000  0.00000  0.23333), residuals and eigenvalues=
  2.49E-13  2.83E-13  6.77E-13  3.34E-13  2.65E-13  3.52E-13  3.37E-13  2.13E-13
  5.86E-13  1.48E-13  1.65E-13  2.16E-13  4.80E-13  2.32E-13  4.47E-13  1.77E-13
  5.09E-13  8.20E-13  2.90E-13  2.51E-13  2.40E-13  7.78E-13  3.58E-13  6.28E-13
  5.03E-13  4.88E-13  9.21E-13  1.17E-13  1.87E-13  2.48E-13  1.53E-13  3.64E-13
  6.11E-13  2.80E-13  7.50E-13  6.62E-13  6.85E-13  8.51E-13  6.44E-13  8.23E-13
 -7.8975E-01 -7.7974E-01 -7.6474E-01 -7.4463E-01 -7.1942E-01 -6.8943E-01
 -6.5559E-01 -6.2201E-01 -5.5558E-01 -5.1755E-01 -4.8012E-01 -4.6100E-01
 -4.5470E-01 -4.4300E-01 -4.3296E-01 -4.1703E-01 -4.0124E-01 -3.9003E-01
 -3.6676E-01 -3.6029E-01 -3.5396E-01 -3.4426E-01 -3.4271E-01 -3.2670E-01
 -3.2578E-01 -3.0323E-01 -3.0259E-01 -2.9357E-01 -2.9099E-01 -2.7544E-01
 -2.4331E-01 -2.0893E-01 -1.7837E-01 -6.5942E-02 -3.1396E-02  8.9457E-03
  4.9311E-02  4.9524E-02  5.0114E-02  5.6058E-02
 Non-SCF case, kpt    9 (  0.00000  0.00000  0.26667), residuals and eigenvalues=
  2.15E-13  5.50E-13  6.44E-13  5.78E-13  5.50E-13  1.13E-13  5.62E-13  1.74E-13
  4.47E-13  3.28E-13  1.78E-13  2.74E-13  3.68E-13  5.10E-13  5.78E-13  2.37E-13
  4.46E-13  2.55E-13  6.43E-13  2.74E-13  2.72E-13  6.03E-13  4.60E-13  3.67E-13
  7.74E-13  5.48E-13  9.47E-13  6.41E-13  5.18E-13  4.20E-13  3.65E-13  9.19E-13
  8.76E-13  8.50E-13  3.23E-13  5.67E-13  6.27E-13  8.95E-13  9.01E-13  7.85E-13
 -7.7912E-01 -7.6915E-01 -7.5422E-01 -7.3421E-01 -7.0915E-01 -6.7940E-01
 -6.4591E-01 -6.1270E-01 -5.5125E-01 -5.1822E-01 -4.9143E-01 -4.8031E-01
 -4.7097E-01 -4.6120E-01 -4.4413E-01 -4.3453E-01 -4.1561E-01 -3.9864E-01
 -3.8864E-01 -3.6672E-01 -3.6057E-01 -3.4143E-01 -3.3029E-01 -3.2872E-01
 -3.1353E-01 -3.1278E-01 -3.0556E-01 -3.0234E-01 -2.9125E-01 -2.6378E-01
 -2.3197E-01 -1.9760E-01 -1.6617E-01 -7.6008E-02 -4.2040E-02 -3.8749E-03
  3.4172E-02  6.1222E-02  6.1689E-02  7.0383E-02
 Non-SCF case, kpt   10 (  0.00000  0.00000  0.30000), residuals and eigenvalues=
  8.50E-13  5.96E-13  7.31E-13  2.36E-13  1.39E-13  7.41E-13  3.10E-13  6.73E-13
  4.03E-13  3.58E-13  4.06E-13  5.43E-13  3.11E-13  4.33E-13  6.50E-13  6.59E-13
  5.01E-13  1.83E-13  9.31E-13  1.69E-13  3.87E-13  4.84E-13  7.75E-13  4.93E-13
  3.30E-13  7.16E-13  1.66E-13  2.57E-13  2.67E-13  3.13E-13  5.03E-13  6.09E-13
  1.85E-13  9.78E-13  9.74E-13  5.28E-13  6.94E-13  8.33E-13  1.45E-10  6.93E-10
 -7.6713E-01 -7.5720E-01 -7.4235E-01 -7.2246E-01 -6.9760E-01 -6.6815E-01
 -6.3511E-01 -6.0224E-01 -5.5249E-01 -5.2858E-01 -5.0961E-01 -4.9403E-01
 -4.8910E-01 -4.6998E-01 -4.6495E-01 -4.3862E-01 -4.3462E-01 -4.1172E-01
 -3.9534E-01 -3.8922E-01 -3.5872E-01 -3.3131E-01 -3.2844E-01 -3.2738E-01
 -3.1639E-01 -3.1447E-01 -3.1398E-01 -2.9989E-01 -2.7799E-01 -2.5105E-01
 -2.1980E-01 -1.8565E-01 -1.5285E-01 -8.8349E-02 -5.4666E-02 -1.9064E-02
  1.5888E-02  4.9664E-02  7.3803E-02  7.4093E-02
  prteigrs : nnsclo,ikpt=   80   10 max resid (incl. the buffer)=  6.92726E-10
 Non-SCF case, kpt   11 (  0.00000  0.00000  0.33333), residuals and eigenvalues=
  7.56E-13  6.66E-13  8.00E-13  4.51E-13  1.44E-13  3.80E-13  3.87E-13  5.03E-13
  1.96E-13  2.78E-13  2.81E-13  4.77E-13  4.89E-13  2.67E-13  5.02E-13  1.66E-13
  9.68E-13  8.04E-13  8.82E-13  2.14E-13  1.66E-13  5.29E-13  5.94E-13  7.36E-13
  4.48E-13  5.41E-13  3.97E-13  9.70E-14  2.76E-13  4.81E-13  5.10E-13  2.86E-13
  8.66E-13  9.86E-13  6.86E-13  9.30E-13  3.99E-13  5.47E-13  6.61E-09  1.11E-05
 -7.5380E-01 -7.4392E-01 -7.2916E-01 -7.0942E-01 -6.8481E-01 -6.5578E-01
 -6.2344E-01 -5.9083E-01 -5.6338E-01 -5.4661E-01 -5.3096E-01 -5.1155E-01
 -4.9653E-01 -4.8794E-01 -4.6676E-01 -4.6128E-01 -4.3517E-01 -4.2779E-01
 -4.1167E-01 -3.8977E-01 -3.5655E-01 -3.4562E-01 -3.3614E-01 -3.2578E-01
 -3.2237E-01 -3.1190E-01 -3.0112E-01 -2.8500E-01 -2.6369E-01 -2.3759E-01
 -2.0741E-01 -1.7417E-01 -1.3913E-01 -1.0208E-01 -6.7855E-02 -3.5391E-02
 -3.8285E-03  2.7244E-02  5.7218E-02  8.6339E-02
  prteigrs : nnsclo,ikpt=   80   11 max resid (incl. the buffer)=  1.10716E-05
 Non-SCF case, kpt   12 (  0.00000  0.00000  0.36667), residuals and eigenvalues=
  3.53E-13  7.52E-13  3.56E-13  1.51E-13  7.16E-13  3.94E-13  9.56E-13  5.92E-13
  5.09E-13  1.99E-13  1.65E-13  3.28E-13  3.90E-13  4.08E-13  4.10E-13  9.85E-13
  4.61E-13  6.38E-13  2.77E-13  3.48E-13  9.04E-13  2.87E-13  9.35E-13  9.05E-13
  6.23E-13  8.73E-13  2.18E-13  1.83E-13  2.17E-13  1.63E-13  2.92E-13  7.87E-13
  7.03E-13  5.41E-13  6.78E-13  7.79E-13  8.03E-13  8.81E-13  1.57E-09  2.34E-06
 -7.3917E-01 -7.2935E-01 -7.1470E-01 -6.9515E-01 -6.7088E-01 -6.4255E-01
 -6.1211E-01 -5.8037E-01 -5.7994E-01 -5.6515E-01 -5.5311E-01 -5.3445E-01
 -5.1171E-01 -4.8918E-01 -4.8535E-01 -4.5744E-01 -4.5683E-01 -4.3346E-01
 -4.1949E-01 -3.8351E-01 -3.6364E-01 -3.5444E-01 -3.4666E-01 -3.3279E-01
 -3.3125E-01 -2.9510E-01 -2.8463E-01 -2.6909E-01 -2.4872E-01 -2.2406E-01
 -1.9609E-01 -1.6614E-01 -1.2726E-01 -1.1469E-01 -7.7974E-02 -5.0799E-02
 -2.3471E-02  4.5927E-03  3.2593E-02  5.8059E-02
  prteigrs : nnsclo,ikpt=   80   12 max resid (incl. the buffer)=  2.34356E-06
 Non-SCF case, kpt   13 (  0.00000  0.00000  0.40000), residuals and eigenvalues=
  8.17E-13  4.29E-13  1.38E-13  1.62E-13  2.17E-13  3.46E-13  1.89E-13  5.14E-13
  2.87E-13  3.25E-13  1.58E-13  1.21E-13  2.39E-13  4.92E-13  4.92E-13  1.74E-13
  4.08E-13  5.23E-13  1.75E-13  3.53E-13  7.44E-13  2.67E-13  7.57E-13  9.78E-13
  4.48E-13  5.47E-13  2.34E-13  6.87E-13  8.17E-13  8.30E-13  2.09E-13  4.60E-13
  2.09E-13  3.80E-13  4.11E-13  4.28E-13  6.65E-13  4.71E-13  2.74E-10  3.39E-07
 -7.2327E-01 -7.1352E-01 -6.9902E-01 -6.7975E-01 -6.5609E-01 -6.2965E-01
 -6.1117E-01 -5.9013E-01 -5.8879E-01 -5.7348E-01 -5.6239E-01 -5.5584E-01
 -5.3417E-01 -5.0766E-01 -4.7987E-01 -4.7756E-01 -4.5471E-01 -4.4556E-01
 -4.0975E-01 -3.8154E-01 -3.7693E-01 -3.6052E-01 -3.5385E-01 -3.3984E-01
 -3.3752E-01 -2.7710E-01 -2.6711E-01 -2.5249E-01 -2.3371E-01 -2.1174E-01
 -1.8846E-01 -1.6765E-01 -1.2220E-01 -1.2147E-01 -7.7713E-02 -6.1822E-02
 -4.1094E-02 -1.7035E-02  8.5278E-03  3.2503E-02
  prteigrs : nnsclo,ikpt=   80   13 max resid (incl. the buffer)=  3.38798E-07
 Non-SCF case, kpt   14 (  0.00000  0.00000  0.43333), residuals and eigenvalues=
  7.74E-13  2.80E-13  1.78E-13  5.67E-13  3.59E-13  7.80E-13  2.54E-13  7.61E-13
  8.71E-13  9.06E-13  3.20E-13  3.26E-13  2.42E-13  5.76E-13  1.10E-13  6.53E-13
  9.76E-13  3.54E-13  4.51E-13  4.57E-13  4.00E-13  4.39E-13  3.64E-13  3.70E-13
  1.23E-13  4.82E-13  5.94E-13  3.36E-13  9.08E-13  1.98E-13  4.78E-13  4.51E-13
  2.67E-13  8.56E-13  7.61E-13  8.52E-13  3.50E-13  5.81E-13  7.63E-10  1.56E-06
 -7.0616E-01 -6.9651E-01 -6.8222E-01 -6.6347E-01 -6.4146E-01 -6.2846E-01
 -6.2559E-01 -5.9978E-01 -5.9774E-01 -5.7809E-01 -5.7327E-01 -5.5553E-01
 -5.4657E-01 -5.2910E-01 -5.0044E-01 -4.7502E-01 -4.6463E-01 -4.3300E-01
 -3.9941E-01 -3.9925E-01 -3.7571E-01 -3.6993E-01 -3.5759E-01 -3.4508E-01
 -3.4220E-01 -2.5809E-01 -2.4888E-01 -2.3580E-01 -2.1985E-01 -2.0295E-01
 -1.8849E-01 -1.8036E-01 -1.2317E-01 -1.2312E-01 -6.5307E-02 -6.3627E-02
 -5.3558E-02 -3.5957E-02 -1.4034E-02  7.8785E-03
  prteigrs : nnsclo,ikpt=   80   14 max resid (incl. the buffer)=  1.56326E-06
 Non-SCF case, kpt   15 (  0.00000  0.00000  0.46667), residuals and eigenvalues=
  7.31E-13  1.07E-13  7.07E-13  4.97E-13  3.17E-13  1.92E-13  1.86E-13  9.00E-13
  2.75E-13  3.79E-13  6.45E-13  5.95E-13  3.08E-13  6.67E-13  5.07E-13  2.61E-13
  2.35E-13  2.04E-13  9.69E-13  8.16E-13  2.89E-13  3.58E-13  1.94E-13  2.51E-13
  4.26E-13  7.16E-13  2.90E-13  6.59E-13  6.61E-13  9.13E-13  5.68E-13  5.29E-13
  2.71E-13  5.00E-13  4.94E-13  6.84E-13  9.88E-13  4.34E-13  5.90E-11  1.10E-07
 -6.8791E-01 -6.7843E-01 -6.6457E-01 -6.4867E-01 -6.4723E-01 -6.4047E-01
 -6.3432E-01 -6.0790E-01 -6.0100E-01 -5.8510E-01 -5.7663E-01 -5.5704E-01
 -5.4973E-01 -5.3023E-01 -5.2049E-01 -4.9445E-01 -4.4971E-01 -4.1941E-01
 -4.1681E-01 -3.9040E-01 -3.8843E-01 -3.6657E-01 -3.6426E-01 -3.4681E-01
 -3.4599E-01 -2.3834E-01 -2.3045E-01 -2.2013E-01 -2.0931E-01 -2.0112E-01
 -1.9828E-01 -1.9761E-01 -1.2426E-01 -1.2419E-01 -5.8268E-02 -5.6207E-02
 -4.8142E-02 -4.5967E-02 -3.3484E-02 -1.5174E-02
  prteigrs : nnsclo,ikpt=   80   15 max resid (incl. the buffer)=  1.09579E-07
 Non-SCF case, kpt   16 (  0.00000  0.00000  0.50000), residuals and eigenvalues=
  8.99E-13  2.25E-13  3.29E-13  4.25E-13  8.65E-13  4.40E-13  4.43E-13  4.63E-13
  8.88E-13  3.20E-13  4.63E-13  2.43E-13  5.01E-13  5.22E-13  1.85E-13  1.83E-13
  1.91E-13  7.73E-13  4.93E-13  6.22E-13  1.78E-13  9.11E-13  1.62E-13  2.68E-13
  1.84E-13  8.35E-13  4.58E-13  6.68E-13  3.62E-13  2.74E-13  6.79E-13  6.29E-13
  5.21E-13  8.50E-13  5.93E-13  6.51E-13  8.52E-13  7.46E-13  5.38E-10  1.76E-06
 -6.6869E-01 -6.6865E-01 -6.5964E-01 -6.5940E-01 -6.4724E-01 -6.4643E-01
 -6.3725E-01 -6.1079E-01 -6.0107E-01 -5.9047E-01 -5.7178E-01 -5.6612E-01
 -5.4129E-01 -5.3782E-01 -5.1367E-01 -5.1217E-01 -4.3395E-01 -4.3339E-01
 -4.0516E-01 -4.0506E-01 -3.7867E-01 -3.7596E-01 -3.6127E-01 -3.4937E-01
 -3.4599E-01 -2.1828E-01 -2.1823E-01 -2.1285E-01 -2.1278E-01 -2.0812E-01
 -2.0672E-01 -2.0502E-01 -1.2468E-01 -1.2460E-01 -5.6979E-02 -5.4429E-02
 -4.5948E-02 -3.8962E-02 -3.3011E-02 -2.4712E-02
  prteigrs : nnsclo,ikpt=   80   16 max resid (incl. the buffer)=  1.75560E-06

 SPIN DOWN channel
 Non-SCF case, kpt    1 (  0.00000  0.00000  0.00000), residuals and eigenvalues=
  6.91E-13  5.06E-13  8.02E-13  7.92E-13  5.47E-13  6.59E-13  2.35E-13  8.87E-13
  1.72E-13  3.08E-13  1.93E-13  2.38E-13  4.85E-13  2.77E-13  4.00E-13  2.31E-13
  7.67E-13  9.68E-13  9.83E-13  7.24E-13  4.32E-13  7.09E-13  1.53E-13  4.64E-13
  2.03E-13  8.33E-13  4.64E-13  6.04E-13  7.47E-13  2.58E-13  3.73E-13  2.00E-13
  6.57E-13  3.95E-13  8.69E-13  8.20E-13  6.86E-13  7.74E-13  4.78E-09  2.05E-08
 -8.2475E-01 -8.1462E-01 -7.9942E-01 -7.7898E-01 -7.5330E-01 -7.2262E-01
 -6.8775E-01 -6.5276E-01 -5.8185E-01 -5.3912E-01 -4.9052E-01 -4.3918E-01
 -3.9569E-01 -3.8698E-01 -3.8423E-01 -3.6692E-01 -3.5196E-01 -3.4385E-01
 -3.4322E-01 -3.3648E-01 -3.3021E-01 -3.1545E-01 -3.1323E-01 -2.9322E-01
 -2.9132E-01 -2.8283E-01 -2.7199E-01 -2.5631E-01 -2.5239E-01 -2.4869E-01
 -2.3830E-01 -2.3680E-01 -2.1980E-01 -4.5848E-02 -1.0729E-02  5.1957E-03
  8.2126E-03  1.0166E-02  2.0241E-02  2.3805E-02
  prteigrs : nnsclo,ikpt=   80    1 max resid (incl. the buffer)=  2.05472E-08
 Non-SCF case, kpt    2 (  0.00000  0.00000  0.03333), residuals and eigenvalues=
  4.59E-13  7.53E-13  4.16E-13  2.50E-13  4.32E-13  8.48E-13  1.64E-13  6.98E-13
  3.44E-13  1.72E-13  3.22E-13  4.95E-13  1.58E-13  5.79E-13  5.13E-13  7.20E-13
  9.22E-13  4.30E-13  6.03E-13  3.46E-13  5.44E-13  1.41E-13  3.63E-13  6.01E-13
  5.14E-13  2.97E-13  6.50E-13  6.48E-13  3.31E-13  6.82E-13  9.95E-13  6.25E-13
  5.29E-13  3.76E-13  5.51E-13  7.34E-13  9.67E-13  7.71E-13  1.48E-09  5.54E-08
 -8.2403E-01 -8.1390E-01 -7.9871E-01 -7.7828E-01 -7.5260E-01 -7.2193E-01
 -6.8709E-01 -6.5213E-01 -5.8124E-01 -5.3856E-01 -4.9005E-01 -4.3884E-01
 -3.9483E-01 -3.8688E-01 -3.8337E-01 -3.6607E-01 -3.5513E-01 -3.4640E-01
 -3.4300E-01 -3.3678E-01 -3.3330E-01 -3.1610E-01 -3.1461E-01 -2.9724E-01
 -2.9080E-01 -2.8199E-01 -2.7515E-01 -2.5696E-01 -2.5531E-01 -2.4785E-01
 -2.4106E-01 -2.3799E-01 -2.1893E-01 -4.6002E-02 -1.0830E-02  6.1512E-03
  9.1255E-03  1.1105E-02  2.1184E-02  2.4760E-02
  prteigrs : nnsclo,ikpt=   80    2 max resid (incl. the buffer)=  5.53581E-08
 Non-SCF case, kpt    3 (  0.00000  0.00000  0.06667), residuals and eigenvalues=
  6.98E-13  4.57E-13  4.51E-13  5.55E-13  3.82E-13  5.94E-13  2.19E-13  9.75E-13
  3.80E-13  8.43E-13  5.49E-13  4.11E-13  3.59E-13  3.53E-13  1.65E-13  2.75E-13
  3.32E-13  4.13E-13  8.15E-13  3.49E-13  4.67E-13  9.49E-13  6.30E-13  7.93E-13
  5.15E-13  8.79E-13  6.07E-13  5.50E-13  7.69E-13  7.44E-13  5.72E-13  5.41E-13
  4.56E-13  6.98E-13  8.44E-13  7.31E-13  8.72E-13  7.49E-13  8.55E-10  1.09E-08
 -8.2188E-01 -8.1175E-01 -7.9657E-01 -7.7616E-01 -7.5051E-01 -7.1988E-01
 -6.8510E-01 -6.5024E-01 -5.7942E-01 -5.3690E-01 -4.8866E-01 -4.3790E-01
 -3.9224E-01 -3.8671E-01 -3.8079E-01 -3.6428E-01 -3.6351E-01 -3.5550E-01
 -3.4214E-01 -3.4046E-01 -3.3833E-01 -3.2391E-01 -3.1210E-01 -3.0645E-01
 -2.9193E-01 -2.8392E-01 -2.7950E-01 -2.6344E-01 -2.5963E-01 -2.4866E-01
 -2.4534E-01 -2.4159E-01 -2.1636E-01 -4.6530E-02 -1.1226E-02  9.0093E-03
  1.1850E-02  1.3918E-02  2.4007E-02  2.7615E-02
  prteigrs : nnsclo,ikpt=   80    3 max resid (incl. the buffer)=  1.08632E-08
 Non-SCF case, kpt    4 (  0.00000  0.00000  0.10000), residuals and eigenvalues=
  4.10E-13  8.27E-13  5.10E-13  6.33E-13  5.95E-13  6.86E-13  1.55E-13  3.33E-13
  8.18E-13  5.85E-13  9.76E-13  2.66E-13  2.76E-13  7.51E-13  6.56E-13  1.14E-13
  6.97E-13  3.48E-13  7.43E-13  3.02E-13  5.16E-13  6.56E-13  6.63E-13  9.25E-13
  1.02E-13  1.78E-13  2.43E-13  8.43E-13  5.77E-13  8.23E-13  4.78E-13  3.60E-13
  8.25E-13  3.37E-13  9.13E-13  9.34E-13  4.05E-13  6.30E-13  2.41E-08  1.81E-05
 -8.1829E-01 -8.0818E-01 -7.9302E-01 -7.7264E-01 -7.4704E-01 -7.1647E-01
 -6.8179E-01 -6.4707E-01 -5.7641E-01 -5.3417E-01 -4.8643E-01 -4.3650E-01
 -3.8794E-01 -3.8700E-01 -3.7844E-01 -3.7652E-01 -3.6959E-01 -3.5926E-01
 -3.5565E-01 -3.4463E-01 -3.3625E-01 -3.3276E-01 -3.1983E-01 -3.0792E-01
 -2.9658E-01 -2.9574E-01 -2.7535E-01 -2.7471E-01 -2.6719E-01 -2.5775E-01
 -2.4774E-01 -2.4116E-01 -2.1205E-01 -4.7668E-02 -1.2223E-02  1.3743E-02
  1.6347E-02  1.8591E-02  2.8706E-02  2.9618E-02
  prteigrs : nnsclo,ikpt=   80    4 max resid (incl. the buffer)=  1.81350E-05
 Non-SCF case, kpt    5 (  0.00000  0.00000  0.13333), residuals and eigenvalues=
  5.39E-13  4.88E-13  1.92E-13  9.06E-13  5.00E-13  2.59E-13  8.06E-13  8.17E-13
  2.64E-13  7.99E-13  2.73E-13  6.25E-13  8.69E-13  6.78E-13  7.00E-13  4.05E-13
  1.48E-13  1.26E-13  8.58E-13  6.53E-13  2.15E-13  8.51E-13  4.03E-13  1.83E-13
  2.43E-13  6.48E-13  4.99E-13  5.60E-13  4.46E-13  9.05E-13  1.88E-13  2.78E-13
  6.28E-13  3.50E-13  5.63E-13  3.00E-13  5.25E-13  6.18E-13  9.64E-06  6.69E-07
 -8.1328E-01 -8.0319E-01 -7.8805E-01 -7.6772E-01 -7.4218E-01 -7.1171E-01
 -6.7717E-01 -6.4267E-01 -5.7231E-01 -5.3050E-01 -4.8354E-01 -4.3508E-01
 -3.9689E-01 -3.8894E-01 -3.8733E-01 -3.8194E-01 -3.7152E-01 -3.7054E-01
 -3.5915E-01 -3.5332E-01 -3.3940E-01 -3.3573E-01 -3.3038E-01 -3.1028E-01
 -3.0534E-01 -3.0211E-01 -2.8472E-01 -2.8217E-01 -2.6959E-01 -2.6478E-01
 -2.5632E-01 -2.3537E-01 -2.0606E-01 -4.9726E-02 -1.4218E-02  2.0296E-02
  2.2544E-02  2.5113E-02  2.8236E-02  3.5268E-02
  prteigrs : nnsclo,ikpt=   80    5 max resid (incl. the buffer)=  9.63571E-06
 Non-SCF case, kpt    6 (  0.00000  0.00000  0.16667), residuals and eigenvalues=
  4.81E-13  5.81E-13  2.12E-13  5.16E-13  2.53E-13  2.97E-13  5.13E-13  2.32E-13
  8.05E-13  4.43E-13  7.54E-13  1.94E-13  3.88E-13  2.34E-13  6.15E-13  8.98E-13
  7.84E-13  9.72E-13  1.13E-13  7.70E-13  1.70E-13  2.44E-13  3.44E-13  3.86E-13
  4.16E-13  8.23E-14  2.73E-13  3.22E-13  5.18E-13  4.01E-13  4.17E-13  4.96E-13
  3.29E-13  7.88E-13  4.68E-13  8.34E-13  4.49E-13  6.84E-13  6.36E-13  7.22E-13
 -8.0684E-01 -7.9677E-01 -7.8167E-01 -7.6140E-01 -7.3595E-01 -7.0561E-01
 -6.7126E-01 -6.3702E-01 -5.6723E-01 -5.2607E-01 -4.8040E-01 -4.3482E-01
 -4.1747E-01 -4.0713E-01 -3.9930E-01 -3.8466E-01 -3.7684E-01 -3.7425E-01
 -3.6288E-01 -3.5086E-01 -3.5083E-01 -3.4573E-01 -3.2289E-01 -3.2212E-01
 -3.2007E-01 -3.0110E-01 -2.9473E-01 -2.9106E-01 -2.7217E-01 -2.6711E-01
 -2.6228E-01 -2.2800E-01 -1.9842E-01 -5.3143E-02 -1.7736E-02  2.4907E-02
  2.8555E-02  3.0341E-02  3.3493E-02  4.3683E-02
 Non-SCF case, kpt    7 (  0.00000  0.00000  0.20000), residuals and eigenvalues=
  4.99E-13  3.52E-13  6.40E-13  5.49E-13  3.57E-13  1.82E-13  4.37E-13  1.84E-13
  8.69E-13  4.94E-13  2.29E-13  2.93E-13  5.90E-13  3.51E-13  3.52E-13  3.31E-13
  3.11E-13  4.93E-13  1.79E-13  1.62E-13  2.03E-13  5.08E-13  3.99E-13  5.43E-13
  5.10E-13  3.08E-13  9.51E-13  4.87E-13  2.87E-13  2.09E-13  1.88E-13  7.91E-13
  5.10E-13  5.26E-13  8.99E-13  8.91E-13  7.18E-13  8.48E-13  9.16E-12  6.19E-09
 -7.9900E-01 -7.8895E-01 -7.7390E-01 -7.5370E-01 -7.2836E-01 -6.9818E-01
 -6.6405E-01 -6.3013E-01 -5.6145E-01 -5.2135E-01 -4.7816E-01 -4.3979E-01
 -4.3938E-01 -4.2628E-01 -4.1701E-01 -3.9809E-01 -3.9264E-01 -3.6909E-01
 -3.6491E-01 -3.5995E-01 -3.5360E-01 -3.4258E-01 -3.3654E-01 -3.2505E-01
 -3.2157E-01 -3.1382E-01 -2.9642E-01 -2.8581E-01 -2.8089E-01 -2.7975E-01
 -2.5349E-01 -2.1915E-01 -1.8917E-01 -5.8398E-02 -2.3337E-02  1.8589E-02
  3.8322E-02  3.9592E-02  4.3778E-02  5.3996E-02
  prteigrs : nnsclo,ikpt=   80    7 max resid (incl. the buffer)=  6.19072E-09
 Non-SCF case, kpt    8 (  0.00000  0.00000  0.23333), residuals and eigenvalues=
  2.49E-13  2.83E-13  6.77E-13  3.34E-13  2.65E-13  3.52E-13  3.37E-13  2.13E-13
  5.86E-13  1.48E-13  1.65E-13  2.16E-13  4.80E-13  2.32E-13  4.47E-13  1.77E-13
  5.09E-13  8.20E-13  2.90E-13  2.51E-13  2.40E-13  7.78E-13  3.58E-13  6.28E-13
  5.03E-13  4.88E-13  9.21E-13  1.17E-13  1.87E-13  2.48E-13  1.53E-13  3.64E-13
  6.11E-13  2.80E-13  7.49E-13  6.63E-13  6.86E-13  8.52E-13  6.45E-13  8.23E-13
 -7.8975E-01 -7.7974E-01 -7.6474E-01 -7.4463E-01 -7.1942E-01 -6.8943E-01
 -6.5559E-01 -6.2201E-01 -5.5558E-01 -5.1755E-01 -4.8012E-01 -4.6100E-01
 -4.5470E-01 -4.4300E-01 -4.3296E-01 -4.1704E-01 -4.0124E-01 -3.9003E-01
 -3.6676E-01 -3.6029E-01 -3.5396E-01 -3.4426E-01 -3.4271E-01 -3.2670E-01
 -3.2578E-01 -3.0323E-01 -3.0259E-01 -2.9357E-01 -2.9099E-01 -2.7544E-01
 -2.4331E-01 -2.0893E-01 -1.7837E-01 -6.5943E-02 -3.1396E-02  8.9451E-03
  4.9311E-02  4.9524E-02  5.0114E-02  5.6057E-02
 Non-SCF case, kpt    9 (  0.00000  0.00000  0.26667), residuals and eigenvalues=
  2.15E-13  5.50E-13  6.44E-13  5.78E-13  5.50E-13  1.13E-13  5.62E-13  1.74E-13
  4.47E-13  3.28E-13  1.78E-13  2.74E-13  3.68E-13  5.10E-13  5.78E-13  2.37E-13
  4.46E-13  2.55E-13  6.43E-13  2.74E-13  2.72E-13  6.03E-13  4.60E-13  3.67E-13
  7.74E-13  5.48E-13  9.47E-13  6.41E-13  5.19E-13  4.20E-13  3.65E-13  9.18E-13
  8.76E-13  8.51E-13  3.23E-13  5.67E-13  6.27E-13  8.94E-13  9.19E-13  8.27E-13
 -7.7912E-01 -7.6915E-01 -7.5422E-01 -7.3421E-01 -7.0916E-01 -6.7940E-01
[...]
                       1.000000  1.000000  1.000000  1.000000  1.000000  1.000000
                       1.000000  1.000000  1.000000  1.000000  1.000000  1.000000
                       1.000000  1.000000  1.000000  1.000000  1.000000  1.000000
                       1.000000  1.000000  1.000000  1.000000  1.000000  1.000000
                       1.000000  1.000000  1.000000  0.000000  0.000000  0.000000
                       0.000000  0.000000  0.000000  0.000000  0.000000  0.000000
                       1.000000  1.000000  1.000000  1.000000  1.000000  1.000000
                       1.000000  1.000000  1.000000  1.000000  1.000000  1.000000
                       1.000000  1.000000  1.000000  1.000000  1.000000  1.000000
                       1.000000  1.000000  1.000000  1.000000  1.000000  1.000000
                       1.000000  1.000000  1.000000  1.000000  1.000000  1.000000
                       1.000000  1.000000  1.000000  0.000000  0.000000  0.000000
                       0.000000  0.000000  0.000000  0.000000  0.000000  0.000000
                       1.000000  1.000000  1.000000  1.000000  1.000000  1.000000
                       1.000000  1.000000  1.000000  1.000000  1.000000  1.000000
                       1.000000  1.000000  1.000000  1.000000  1.000000  1.000000
                       1.000000  1.000000  1.000000  1.000000  1.000000  1.000000
                       1.000000  1.000000  1.000000  1.000000  1.000000  1.000000
                       1.000000  1.000000  1.000000  0.000000  0.000000  0.000000
                       0.000000  0.000000  0.000000  0.000000  0.000000  0.000000
                       1.000000  1.000000  1.000000  1.000000  1.000000  1.000000
                       1.000000  1.000000  1.000000  1.000000  1.000000  1.000000
                       1.000000  1.000000  1.000000  1.000000  1.000000  1.000000
                       1.000000  1.000000  1.000000  1.000000  1.000000  1.000000
                       1.000000  1.000000  1.000000  1.000000  1.000000  1.000000
                       1.000000  1.000000  1.000000  0.000000  0.000000  0.000000
                       0.000000  0.000000  0.000000  0.000000  0.000000  0.000000
                       1.000000  1.000000  1.000000  1.000000  1.000000  1.000000
                       1.000000  1.000000  1.000000  1.000000  1.000000  1.000000
                       1.000000  1.000000  1.000000  1.000000  1.000000  1.000000
                       1.000000  1.000000  1.000000  1.000000  1.000000  1.000000
                       1.000000  1.000000  1.000000  1.000000  1.000000  1.000000
                       1.000000  1.000000  0.999442  0.000043  0.000000  0.000000
                       0.000000  0.000000  0.000000  0.000000  0.000000  0.000000
                       1.000000  1.000000  1.000000  1.000000  1.000000  1.000000
                       1.000000  1.000000  1.000000  1.000000  1.000000  1.000000
                       1.000000  1.000000  1.000000  1.000000  1.000000  1.000000
                       1.000000  1.000000  1.000000  1.000000  1.000000  1.000000
                       1.000000  1.000000  1.000000  1.000000  1.000000  1.000000
                       1.000000  1.000000  0.917210  0.022954  0.000000  0.000000
                       0.000000  0.000000  0.000000  0.000000  0.000000  0.000000
                       1.000000  1.000000  1.000000  1.000000  1.000000  1.000000
                       1.000000  1.000000  1.000000  1.000000  1.000000  1.000000
                       1.000000  1.000000  1.000000  1.000000  1.000000  1.000000
                       1.000000  1.000000  1.000000  1.000000  1.000000  1.000000
                       1.000000  1.000000  1.000000  1.000000  1.000000  1.000000
                       1.000000  1.000000  0.538853  0.292379  0.000000  0.000000
                       0.000000  0.000000  0.000000  0.000000  0.000000  0.000000
                       1.000000  1.000000  1.000000  1.000000  1.000000  1.000000
                       1.000000  1.000000  1.000000  1.000000  1.000000  1.000000
                       1.000000  1.000000  1.000000  1.000000  1.000000  1.000000
                       1.000000  1.000000  1.000000  1.000000  1.000000  1.000000
                       1.000000  1.000000  1.000000  1.000000  1.000000  1.000000
                       1.000000  1.000000  0.478170  0.473953  0.000000  0.000000
                       0.000000  0.000000  0.000000  0.000000  0.000000  0.000000
                       1.000000  1.000000  1.000000  1.000000  1.000000  1.000000
                       1.000000  1.000000  1.000000  1.000000  1.000000  1.000000
                       1.000000  1.000000  1.000000  1.000000  1.000000  1.000000
                       1.000000  1.000000  1.000000  1.000000  1.000000  1.000000
                       1.000000  1.000000  1.000000  1.000000  1.000000  1.000000
                       1.000000  1.000000  0.548309  0.546839  0.000000  0.000000
                       0.000000  0.000000  0.000000  0.000000  0.000000  0.000000
                       1.000000  1.000000  1.000000  1.000000  1.000000  1.000000
                       1.000000  1.000000  1.000000  1.000000  1.000000  1.000000
                       1.000000  1.000000  1.000000  1.000000  1.000000  1.000000
                       1.000000  1.000000  1.000000  1.000000  1.000000  1.000000
                       1.000000  1.000000  1.000000  1.000000  1.000000  1.000000
                       1.000000  1.000000  0.591744  0.590811  0.000000  0.000000
                       0.000000  0.000000  0.000000  0.000000  0.000000  0.000000
           occopt           7
        pawecutdg      4.00000000E+01 Hartree
          pawovlp      1.0000000000E+01
           shiftk1     0.00000000E+00  0.00000000E+00  5.00000000E-01
           shiftk2     5.00000000E-01  5.00000000E-01  5.00000000E-01
          spgroup           1
           spinat      0.0000000000E+00  0.0000000000E+00  1.0000000000E+00
                       0.0000000000E+00  0.0000000000E+00  0.0000000000E+00
                       0.0000000000E+00  0.0000000000E+00  0.0000000000E+00
                       0.0000000000E+00  0.0000000000E+00  0.0000000000E+00
                       0.0000000000E+00  0.0000000000E+00  0.0000000000E+00
                       0.0000000000E+00  0.0000000000E+00  0.0000000000E+00
                       0.0000000000E+00  0.0000000000E+00  0.0000000000E+00
                       0.0000000000E+00  0.0000000000E+00  0.0000000000E+00
                       0.0000000000E+00  0.0000000000E+00  0.0000000000E+00
                       0.0000000000E+00  0.0000000000E+00  0.0000000000E+00
                       0.0000000000E+00  0.0000000000E+00  0.0000000000E+00
                       0.0000000000E+00  0.0000000000E+00  0.0000000000E+00
                       0.0000000000E+00  0.0000000000E+00  0.0000000000E+00
                       0.0000000000E+00  0.0000000000E+00  0.0000000000E+00
                       0.0000000000E+00  0.0000000000E+00  0.0000000000E+00
                       0.0000000000E+00  0.0000000000E+00  0.0000000000E+00
                       0.0000000000E+00  0.0000000000E+00  0.0000000000E+00
                       0.0000000000E+00  0.0000000000E+00 -1.0000000000E+00
           strten1     1.3743873327E-05  5.6305719150E-05  6.4120036406E-05
                       4.3056370202E-10  1.5307234405E-11  9.4589888704E-11
           toldfe1     1.00000000E-06 Hartree
           toldfe2     0.00000000E+00 Hartree
           tolwfr1     0.00000000E+00
           tolwfr2     1.00000000E-12
            typat      2  1  1  1  1  1  1  1  1  1  1  1  1  1  1  1  1  2
           useylm           1
              wtk1       0.06667    0.06667    0.06667    0.06667    0.06667    0.06667
                         0.06667    0.06667    0.06667    0.06667    0.06667    0.06667
                         0.06667    0.06667    0.06667
              wtk2       1.00000    1.00000    1.00000    1.00000    1.00000    1.00000
                         1.00000    1.00000    1.00000    1.00000    1.00000    1.00000
                         1.00000    1.00000    1.00000    1.00000
           xangst      2.1924687653E-06 -8.9347127982E+00  1.2253261414E+00
                      -6.3335522880E-06 -7.8374663590E+00  1.2252914015E+00
                      -1.2466279888E-05 -7.1553103483E+00 -9.0703680259E-03
                      -2.4889138031E-05 -5.7095725410E+00 -9.0145181006E-03
                      -3.0871693702E-05 -5.0013301057E+00  1.2253608862E+00
                      -4.2554247256E-05 -3.5682760068E+00  1.2253671991E+00
                      -4.7331677516E-05 -2.8569447694E+00 -8.9956653736E-03
                      -5.1814279312E-05 -1.4267271463E+00 -8.9761860125E-03
                      -5.0440741501E-05 -7.1470430595E-01  1.2253949192E+00
                      -3.9645629859E-05  7.1487653105E-01  1.2253974953E+00
                      -3.1339882842E-05  1.4268988477E+00 -8.9725857920E-03
                      -1.2927341998E-05  2.8571142755E+00 -8.9900137798E-03
                      -3.8630326290E-06  3.5684443157E+00  1.2253733133E+00
                       1.1398425826E-05  5.0014956819E+00  1.2253679131E+00
                       1.7259567710E-05  5.7097392667E+00 -9.0075717678E-03
                       2.3882826847E-05  7.1554797931E+00 -9.0650236494E-03
                       2.4511032039E-05  7.8376359584E+00  1.2252964978E+00
                       2.2583175635E-05  8.9348828407E+00  1.2253293079E+00
            xcart      4.1431655213E-06 -1.6884160265E+01  2.3155308307E+00
                      -1.1968679273E-05 -1.4810664994E+01  2.3154651818E+00
                      -2.3557854884E-05 -1.3521576954E+01 -1.7140511493E-02
                      -4.7033654562E-05 -1.0789528438E+01 -1.7034970430E-02
                      -5.8339046355E-05 -9.4511441999E+00  2.3155964889E+00
                      -8.0415873105E-05 -6.7430644194E+00  2.3156084185E+00
                      -8.9443907915E-05 -5.3988431909E+00 -1.6999343939E-02
                      -9.7914797673E-05 -2.6961235729E+00 -1.6962533281E-02
                      -9.5319187377E-05 -1.3505954042E+00  2.3156608019E+00
                      -7.4919382799E-05  1.3509208625E+00  2.3156656700E+00
                      -5.9223795608E-05  2.6964480415E+00 -1.6955729851E-02
                      -2.4429136002E-05  5.3991635111E+00 -1.6988663975E-02
                      -7.3000737112E-06  6.7433824771E+00  2.3156199727E+00
                       2.1539903157E-05  9.4514570936E+00  2.3156097678E+00
                       3.2615856144E-05  1.0789843504E+01 -1.7021843763E-02
                       4.5132002020E-05  1.3521897158E+01 -1.7130412085E-02
                       4.6319137788E-05  1.4810985491E+01  2.3154748124E+00
                       4.2676017161E-05  1.6884481598E+01  2.3155368145E+00
             xred      1.4616458439E-07 -2.5527750852E-01  4.9634001573E-01
                      -4.2223681918E-07 -2.2392761026E-01  4.9632594372E-01
                      -8.3108532585E-07 -2.0443743852E-01 -3.6741129211E-03
                      -1.6592758687E-06 -1.6313064403E-01 -3.6514899215E-03
                      -2.0581129135E-06 -1.4289514588E-01  4.9635408973E-01
                      -2.8369498171E-06 -1.0195074305E-01  4.9635664688E-01
                      -3.1554451678E-06 -8.1626993411E-02 -3.6438532911E-03
                      -3.4542852875E-06 -4.0763632751E-02 -3.6359628316E-03
                      -3.3627161001E-06 -2.0420123027E-02  4.9636787540E-01
                      -2.6430419906E-06  2.0425043744E-02  4.9636891889E-01
                      -2.0893255228E-06  4.0768538506E-02 -3.6345044986E-03
                      -8.6182279989E-07  8.1631836443E-02 -3.6415640132E-03
                      -2.5753550862E-07  1.0195555188E-01  4.9635912355E-01
                       7.5989505505E-07  1.4289987663E-01  4.9635693610E-01
                       1.1506378473E-06  1.6313540762E-01 -3.6486761866E-03
                       1.5921884565E-06  2.0444227980E-01 -3.6719480869E-03
                       1.6340688026E-06  2.2393245595E-01  4.9632800807E-01
                       1.5055450423E-06  2.5528236688E-01  4.9634129838E-01
            znucl        6.00000    1.00000

================================================================================

- Total cpu        time (s,m,h):      13614.0      226.90      3.782
- Total wall clock time (s,m,h):       8439.0      140.65      2.344
-
- For major independent code sections, cpu and wall times (sec),
-  as well as % of the time and number of calls for node 0-
-<BEGIN_TIMER mpi_nprocs = 1, omp_nthreads = 1, mpi_rank = 0>
- cpu_time =        13614.0, wall_time =         8439.0
-
- routine                        cpu     %       wall     %      number of calls  Gflops    Speedup Efficacity
-                                                                  (-1=no count)
- vtowfk(ssdiag)              5508.938  40.5    338.378   4.0             -1      -1.00       16.28      16.28
- nonlop(apply)               4145.725  30.5   4145.081  49.1         259408      -1.00        1.00       1.00
- fourwf%(pot)                2239.796  16.5   2237.640  26.5         259408      -1.00        1.00       1.00
- projbd                       947.467   7.0    947.264  11.2         189568      -1.00        1.00       1.00
- vtowfk(contrib)              224.355   1.6    224.139   2.7            932      -1.00        1.00       1.00
- fourwf%(den)                 140.370   1.0    140.224   1.7          30076      -1.00        1.00       1.00
- others (107)                 133.983   1.0    132.522   1.6             -1      -1.00        1.01       1.01
-<END_TIMER>
-
- subtotal                   13340.635  98.0   8165.248  96.8                                  1.63       1.63

- For major independent code sections, cpu and wall times (sec),
- as well as % of the total time and number of calls 

-<BEGIN_TIMER mpi_nprocs = 1, omp_nthreads = 1, mpi_rank = world>
- cpu_time =       13614.0, wall_time =        8439.0
-
- routine                         cpu     %       wall     %      number of calls Gflops    Speedup Efficacity
-                                                                  (-1=no count)
- vtowfk(ssdiag)              5508.938  40.5    338.378   4.0             -1      -1.00       16.28      16.28
- nonlop(apply)               4145.725  30.5   4145.081  49.1         259408      -1.00        1.00       1.00
- fourwf%(pot)                2239.796  16.5   2237.640  26.5         259408      -1.00        1.00       1.00
- projbd                       947.467   7.0    947.264  11.2         189568      -1.00        1.00       1.00
- vtowfk(contrib)              224.355   1.6    224.139   2.7            932      -1.00        1.00       1.00
- fourwf%(den)                 140.370   1.0    140.224   1.7          30076      -1.00        1.00       1.00
- others (107)                 133.983   1.0    132.522   1.6             -1      -1.00        1.01       1.01
-<END_TIMER>

- subtotal                   13340.635  98.0   8165.248  96.8                                  1.63       1.63

================================================================================

 Suggested references for the acknowledgment of ABINIT usage.

 The users of ABINIT have little formal obligations with respect to the ABINIT group
 (those specified in the GNU General Public License, http://www.gnu.org/copyleft/gpl.txt).
 However, it is common practice in the scientific literature,
 to acknowledge the efforts of people that have made the research possible.
 In this spirit, please find below suggested citations of work written by ABINIT developers,
 corresponding to implementations inside of ABINIT that you have used in the present run.
 Note also that it will be of great value to readers of publications presenting these results,
 to read papers enabling them to understand the theoretical formalism and details
 of the ABINIT implementation.
 For information on why they are suggested, see also http://www.abinit.org/about/?text=acknowledgments.
-
- [1] Implementation of the Projector Augmented-Wave Method in the ABINIT code.
- M. Torrent, F. Jollet, F. Bottin, G. Zerah, and X. Gonze Comput. Mat. Science 42, 337, (2008).
- Comment : PAW calculations. Strong suggestion to cite this paper.
-
- [2] Recent developments in the ABINIT software package.
- Computer Phys. Comm. 205, 106 (2016).
- X.Gonze, F.Jollet, F.Abreu Araujo, D.Adams, B.Amadon, T.Applencourt,
- C.Audouze, J.-M.Beuken, J.Bieder, A.Bokhanchuk, E.Bousquet, F.Bruneval
- D.Caliste, M.Cote, F.Dahm, F.Da Pieve, M.Delaveau, M.Di Gennaro,
- B.Dorado, C.Espejo, G.Geneste, L.Genovese, A.Gerossier, M.Giantomassi,
- Y.Gillet, D.R.Hamann, L.He, G.Jomard, J.Laflamme Janssen, S.Le Roux,
- A.Levitt, A.Lherbier, F.Liu, I.Lukacevic, A.Martin, C.Martins,
- M.J.T.Oliveira, S.Ponce, Y.Pouillon, T.Rangel, G.-M.Rignanese,
- A.H.Romero, B.Rousseau, O.Rubel, A.A.Shukri, M.Stankovski, M.Torrent,
- M.J.Van Setten, B.Van Troeye, M.J.Verstraete, D.Waroquier, J.Wiktor,
- B.Xue, A.Zhou, J.W.Zwanziger.
- Comment : the fourth generic paper describing the ABINIT project.
- Note that a version of this paper, that is not formatted for Computer Phys. Comm. 
- is available at http://www.abinit.org/about/ABINIT16.pdf .
- The licence allows the authors to put it on the Web.
-
- [3] ABINIT : First-principles approach of materials and nanosystem properties.
- Computer Phys. Comm. 180, 2582-2615 (2009).
- X. Gonze, B. Amadon, P.-M. Anglade, J.-M. Beuken, F. Bottin, P. Boulanger, F. Bruneval,
- D. Caliste, R. Caracas, M. Cote, T. Deutsch, L. Genovese, Ph. Ghosez, M. Giantomassi
- S. Goedecker, D.R. Hamann, P. Hermet, F. Jollet, G. Jomard, S. Leroux, M. Mancini, S. Mazevet,
- M.J.T. Oliveira, G. Onida, Y. Pouillon, T. Rangel, G.-M. Rignanese, D. Sangalli, R. Shaltaf,
- M. Torrent, M.J. Verstraete, G. Zerah, J.W. Zwanziger
- Comment : the third generic paper describing the ABINIT project.
- Note that a version of this paper, that is not formatted for Computer Phys. Comm. 
- is available at http://www.abinit.org/about/ABINIT_CPC_v10.pdf .
- The licence allows the authors to put it on the Web.
-
- [4] A brief introduction to the ABINIT software package.
- Z. Kristallogr. 220, 558-562 (2005).
- X. Gonze, G.-M. Rignanese, M. Verstraete, J.-M. Beuken, Y. Pouillon, R. Caracas, F. Jollet,
- M. Torrent, G. Zerah, M. Mikami, Ph. Ghosez, M. Veithen, J.-Y. Raty, V. Olevano, F. Bruneval,
- L. Reining, R. Godby, G. Onida, D.R. Hamann, and D.C. Allan.
- Comment : the second generic paper describing the ABINIT project. Note that this paper
- should be cited especially if you are using the GW part of ABINIT, as several authors
- of this part are not in the list of authors of the first or third paper.
- The .pdf of the latter paper is available at http://www.abinit.org/about/zfk_0505-06_558-562.pdf.
- Note that it should not redistributed (Copyright by Oldenburg Wissenshaftverlag,
- the licence allows the authors to put it on the Web).
-
- And optionally:
-
- [5] First-principles computation of material properties : the ABINIT software project. 
- X. Gonze, J.-M. Beuken, R. Caracas, F. Detraux, M. Fuchs, G.-M. Rignanese, L. Sindic,
- M. Verstraete, G. Zerah, F. Jollet, M. Torrent, A. Roy, M. Mikami, Ph. Ghosez, J.-Y. Raty, D.C. Allan.
- Computational Materials Science 25, 478-492 (2002). http://dx.doi.org/10.1016/S0927-0256(02)00325-7
- Comment : the original paper describing the ABINIT project.
-
- Proc.   0 individual time (sec): cpu=      13614.0  wall=       8439.0

================================================================================

 Calculation completed.
.Delivered  41 WARNINGs and   4 COMMENTs to log file.
+Overall time at end (sec) : cpu=      13614.0  wall=       8439.0
