
.Version 8.4.3 of ABINIT 
.(sequential version, prepared for a x86_64_linux_gnu5.4 computer) 

.Copyright (C) 1998-2017 ABINIT group . 
 ABINIT comes with ABSOLUTELY NO WARRANTY.
 It is free software, and you are welcome to redistribute it
 under certain conditions (GNU General Public License,
 see ~abinit/COPYING or http://www.gnu.org/copyleft/gpl.txt).

 ABINIT is a project of the Universite Catholique de Louvain,
 Corning Inc. and other collaborators, see ~abinit/doc/developers/contributors.txt .
 Please read ~abinit/doc/users/acknowledgments.html for suggested
 acknowledgments of the ABINIT effort.
 For more information, see http://www.abinit.org .

.Starting date : Mon 28 Aug 2017.
- ( at 16h37 )
  
- input  file    -> zgnr.in
- output file    -> zgnr.out
- root for input  files -> zgnri
- root for output files -> zgnro

- inpspheads : Reading pseudopotential header in XML form from ../C.LDA_PW-JTH.xml
- inpspheads : Reading pseudopotential header in XML form from ../H.LDA_PW-JTH.xml

 DATASET    1 : space group P1 (#  1); Bravais aP (primitive triclinic)
================================================================================
 Values of the parameters that define the memory need for DATASET  1.
     intxc =       0    ionmov =       0      iscf =      17    lmnmax =       8
     lnmax =       4     mgfft =     180  mpssoang =       2    mqgrid =   18831
     natom =      18  nloc_mem =       2    nspden =       2   nspinor =       1
    nsppol =       2      nsym =       1    n1xccc =       1    ntypat =       2
    occopt =       7   xclevel =       1
-    mband =          42        mffmem =           1         mkmem =           8
       mpw =       22046          nfft =      155520          nkpt =           8
 PAW method is used; the additional fine FFT grid is defined by:
   mgfftf=       288    nfftf =    720000
================================================================================
P This job should need less than                     465.384 Mbytes of memory.
  Rough estimation (10% accuracy) of disk space for files :
_ WF disk file :    226.060 Mbytes ; DEN or POT disk file :     10.988 Mbytes.
================================================================================


 DATASET    2 : space group P1 (#  1); Bravais aP (primitive triclinic)
================================================================================
 Values of the parameters that define the memory need for DATASET  2.
     intxc =       0    ionmov =       0      iscf =      -2    lmnmax =       8
     lnmax =       4     mgfft =     180  mpssoang =       2    mqgrid =   18831
     natom =      18  nloc_mem =       2    nspden =       2   nspinor =       1
    nsppol =       2      nsym =       1    n1xccc =       1    ntypat =       2
    occopt =       7   xclevel =       1
-    mband =          40        mffmem =           1         mkmem =          16
       mpw =       22062          nfft =      155520          nkpt =          16
 PAW method is used; the additional fine FFT grid is defined by:
   mgfftf=       288    nfftf =    720000
================================================================================
P This job should need less than                     606.845 Mbytes of memory.
  Rough estimation (10% accuracy) of disk space for files :
_ WF disk file :    430.900 Mbytes ; DEN or POT disk file :     10.988 Mbytes.
================================================================================

--------------------------------------------------------------------------------
------------- Echo of variables that govern the present computation ------------
--------------------------------------------------------------------------------
-
- outvars: echo of selected default values                                      
-   iomode0 =  0 , fftalg0 =112 , wfoptalg0 = 10
-
- outvars: echo of global parameters not present in the input file              
-  max_nthreads =    0
-
 -outvars: echo values of preprocessed input variables --------
            acell      2.8345891993E+01  6.6140414651E+01  4.6652108581E+00 Bohr
              amu      1.20110000E+01  1.00794000E+00
        boxcutmin      1.50000000E+00
        bxctmindg      1.50000000E+00
           diemac      1.00000000E+01
             ecut      1.40000000E+01 Hartree
           enunit1          0
           enunit2          1
-          fftalg         112
           getden1          0
           getden2         -1
             iscf1         17
             iscf2         -2
           istwfk1       0    0    0    0    0    0    0    4
           istwfk2       2    0    0    0    0    0    0    0    0    0
                         0    0    0    0    0    4
              ixc           9
           jdtset        1    2
              kpt1     0.00000000E+00  0.00000000E+00  3.33333333E-02
                       0.00000000E+00  0.00000000E+00  1.00000000E-01
                       0.00000000E+00  0.00000000E+00  1.66666667E-01
                       0.00000000E+00  0.00000000E+00  2.33333333E-01
                       0.00000000E+00  0.00000000E+00  3.00000000E-01
                       0.00000000E+00  0.00000000E+00  3.66666667E-01
                       0.00000000E+00  0.00000000E+00  4.33333333E-01
                       0.00000000E+00  0.00000000E+00  5.00000000E-01
              kpt2     0.00000000E+00  0.00000000E+00  0.00000000E+00
                       0.00000000E+00  0.00000000E+00  3.33333333E-02
                       0.00000000E+00  0.00000000E+00  6.66666667E-02
                       0.00000000E+00  0.00000000E+00  1.00000000E-01
                       0.00000000E+00  0.00000000E+00  1.33333333E-01
                       0.00000000E+00  0.00000000E+00  1.66666667E-01
                       0.00000000E+00  0.00000000E+00  2.00000000E-01
                       0.00000000E+00  0.00000000E+00  2.33333333E-01
                       0.00000000E+00  0.00000000E+00  2.66666667E-01
                       0.00000000E+00  0.00000000E+00  3.00000000E-01
                       0.00000000E+00  0.00000000E+00  3.33333333E-01
                       0.00000000E+00  0.00000000E+00  3.66666667E-01
                       0.00000000E+00  0.00000000E+00  4.00000000E-01
                       0.00000000E+00  0.00000000E+00  4.33333333E-01
                       0.00000000E+00  0.00000000E+00  4.66666667E-01
                       0.00000000E+00  0.00000000E+00  5.00000000E-01
           kptopt1          1
           kptopt2         -1
         kptrlatt        1    0    0      0    1    0      0    0   15
          kptrlen1     6.99781629E+01
          kptrlen2     3.00000000E+01
P           mkmem1          8
P           mkmem2         16
            natom          18
            nband1         42
            nband2         40
           nbdbuf1          0
           nbdbuf2          2
           ndtset           2
            ngfft          72     180      12
          ngfftdg         125     288      20
             nkpt1          8
             nkpt2         16
           nspden           2
           nsppol           2
            nstep          80
             nsym           1
           ntypat           2
              occ      1.000000  1.000000  1.000000  1.000000  1.000000  1.000000
                       1.000000  1.000000  1.000000  1.000000  1.000000  1.000000
                       1.000000  1.000000  1.000000  1.000000  1.000000  1.000000
                       1.000000  1.000000  1.000000  1.000000  1.000000  1.000000
                       1.000000  1.000000  1.000000  1.000000  1.000000  1.000000
                       1.000000  1.000000  1.000000  0.000000  0.000000  0.000000
                       0.000000  0.000000  0.000000  0.000000  0.000000  0.000000
                       1.000000  1.000000  1.000000  1.000000  1.000000  1.000000
                       1.000000  1.000000  1.000000  1.000000  1.000000  1.000000
                       1.000000  1.000000  1.000000  1.000000  1.000000  1.000000
                       1.000000  1.000000  1.000000  1.000000  1.000000  1.000000
                       1.000000  1.000000  1.000000  1.000000  1.000000  1.000000
                       1.000000  1.000000  1.000000  0.000000  0.000000  0.000000
                       0.000000  0.000000  0.000000  0.000000  0.000000  0.000000
                       1.000000  1.000000  1.000000  1.000000  1.000000  1.000000
                       1.000000  1.000000  1.000000  1.000000  1.000000  1.000000
                       1.000000  1.000000  1.000000  1.000000  1.000000  1.000000
                       1.000000  1.000000  1.000000  1.000000  1.000000  1.000000
                       1.000000  1.000000  1.000000  1.000000  1.000000  1.000000
                       1.000000  1.000000  1.000000  0.000000  0.000000  0.000000
                       0.000000  0.000000  0.000000  0.000000  0.000000  0.000000
                       1.000000  1.000000  1.000000  1.000000  1.000000  1.000000
                       1.000000  1.000000  1.000000  1.000000  1.000000  1.000000
                       1.000000  1.000000  1.000000  1.000000  1.000000  1.000000
                       1.000000  1.000000  1.000000  1.000000  1.000000  1.000000
                       1.000000  1.000000  1.000000  1.000000  1.000000  1.000000
                       1.000000  1.000000  1.000000  0.000000  0.000000  0.000000
                       0.000000  0.000000  0.000000  0.000000  0.000000  0.000000
                       1.000000  1.000000  1.000000  1.000000  1.000000  1.000000
                       1.000000  1.000000  1.000000  1.000000  1.000000  1.000000
                       1.000000  1.000000  1.000000  1.000000  1.000000  1.000000
                       1.000000  1.000000  1.000000  1.000000  1.000000  1.000000
                       1.000000  1.000000  1.000000  1.000000  1.000000  1.000000
                       1.000000  1.000000  1.000000  0.000000  0.000000  0.000000
                       0.000000  0.000000  0.000000  0.000000  0.000000  0.000000
                       1.000000  1.000000  1.000000  1.000000  1.000000  1.000000
                       1.000000  1.000000  1.000000  1.000000  1.000000  1.000000
                       1.000000  1.000000  1.000000  1.000000  1.000000  1.000000
                       1.000000  1.000000  1.000000  1.000000  1.000000  1.000000
                       1.000000  1.000000  1.000000  1.000000  1.000000  1.000000
                       1.000000  1.000000  1.000000  0.000000  0.000000  0.000000
                       0.000000  0.000000  0.000000  0.000000  0.000000  0.000000
                       1.000000  1.000000  1.000000  1.000000  1.000000  1.000000
                       1.000000  1.000000  1.000000  1.000000  1.000000  1.000000
                       1.000000  1.000000  1.000000  1.000000  1.000000  1.000000
                       1.000000  1.000000  1.000000  1.000000  1.000000  1.000000
                       1.000000  1.000000  1.000000  1.000000  1.000000  1.000000
                       1.000000  1.000000  1.000000  0.000000  0.000000  0.000000
                       0.000000  0.000000  0.000000  0.000000  0.000000  0.000000
                       1.000000  1.000000  1.000000  1.000000  1.000000  1.000000
                       1.000000  1.000000  1.000000  1.000000  1.000000  1.000000
                       1.000000  1.000000  1.000000  1.000000  1.000000  1.000000
                       1.000000  1.000000  1.000000  1.000000  1.000000  1.000000
                       1.000000  1.000000  1.000000  1.000000  1.000000  1.000000
                       1.000000  1.000000  1.000000  0.000000  0.000000  0.000000
                       0.000000  0.000000  0.000000  0.000000  0.000000  0.000000
                       1.000000  1.000000  1.000000  1.000000  1.000000  1.000000
                       1.000000  1.000000  1.000000  1.000000  1.000000  1.000000
                       1.000000  1.000000  1.000000  1.000000  1.000000  1.000000
                       1.000000  1.000000  1.000000  1.000000  1.000000  1.000000
                       1.000000  1.000000  1.000000  1.000000  1.000000  1.000000
                       1.000000  1.000000  1.000000  0.000000  0.000000  0.000000
                       0.000000  0.000000  0.000000  0.000000  0.000000  0.000000
                       1.000000  1.000000  1.000000  1.000000  1.000000  1.000000
                       1.000000  1.000000  1.000000  1.000000  1.000000  1.000000
                       1.000000  1.000000  1.000000  1.000000  1.000000  1.000000
                       1.000000  1.000000  1.000000  1.000000  1.000000  1.000000
                       1.000000  1.000000  1.000000  1.000000  1.000000  1.000000
                       1.000000  1.000000  1.000000  0.000000  0.000000  0.000000
                       0.000000  0.000000  0.000000  0.000000  0.000000  0.000000
                       1.000000  1.000000  1.000000  1.000000  1.000000  1.000000
                       1.000000  1.000000  1.000000  1.000000  1.000000  1.000000
                       1.000000  1.000000  1.000000  1.000000  1.000000  1.000000
                       1.000000  1.000000  1.000000  1.000000  1.000000  1.000000
                       1.000000  1.000000  1.000000  1.000000  1.000000  1.000000
                       1.000000  1.000000  1.000000  0.000000  0.000000  0.000000
                       0.000000  0.000000  0.000000  0.000000  0.000000  0.000000
                       1.000000  1.000000  1.000000  1.000000  1.000000  1.000000
                       1.000000  1.000000  1.000000  1.000000  1.000000  1.000000
                       1.000000  1.000000  1.000000  1.000000  1.000000  1.000000
                       1.000000  1.000000  1.000000  1.000000  1.000000  1.000000
                       1.000000  1.000000  1.000000  1.000000  1.000000  1.000000
                       1.000000  1.000000  1.000000  0.000000  0.000000  0.000000
                       0.000000  0.000000  0.000000  0.000000  0.000000  0.000000
                       1.000000  1.000000  1.000000  1.000000  1.000000  1.000000
                       1.000000  1.000000  1.000000  1.000000  1.000000  1.000000
                       1.000000  1.000000  1.000000  1.000000  1.000000  1.000000
                       1.000000  1.000000  1.000000  1.000000  1.000000  1.000000
                       1.000000  1.000000  1.000000  1.000000  1.000000  1.000000
                       1.000000  1.000000  1.000000  0.000000  0.000000  0.000000
                       0.000000  0.000000  0.000000  0.000000  0.000000  0.000000
                       1.000000  1.000000  1.000000  1.000000  1.000000  1.000000
                       1.000000  1.000000  1.000000  1.000000  1.000000  1.000000
                       1.000000  1.000000  1.000000  1.000000  1.000000  1.000000
                       1.000000  1.000000  1.000000  1.000000  1.000000  1.000000
                       1.000000  1.000000  1.000000  1.000000  1.000000  1.000000
                       1.000000  1.000000  1.000000  0.000000  0.000000  0.000000
                       0.000000  0.000000  0.000000  0.000000  0.000000  0.000000
                       1.000000  1.000000  1.000000  1.000000  1.000000  1.000000
                       1.000000  1.000000  1.000000  1.000000  1.000000  1.000000
                       1.000000  1.000000  1.000000  1.000000  1.000000  1.000000
                       1.000000  1.000000  1.000000  1.000000  1.000000  1.000000
                       1.000000  1.000000  1.000000  1.000000  1.000000  1.000000
                       1.000000  1.000000  1.000000  0.000000  0.000000  0.000000
                       0.000000  0.000000  0.000000  0.000000  0.000000  0.000000
                       1.000000  1.000000  1.000000  1.000000  1.000000  1.000000
                       1.000000  1.000000  1.000000  1.000000  1.000000  1.000000
                       1.000000  1.000000  1.000000  1.000000  1.000000  1.000000
                       1.000000  1.000000  1.000000  1.000000  1.000000  1.000000
                       1.000000  1.000000  1.000000  1.000000  1.000000  1.000000
                       1.000000  1.000000  1.000000  0.000000  0.000000  0.000000
                       0.000000  0.000000  0.000000  0.000000  0.000000  0.000000
           occopt           7
        pawecutdg      4.00000000E+01 Hartree
          pawovlp      1.0000000000E+01
           shiftk1     0.00000000E+00  0.00000000E+00  5.00000000E-01
           shiftk2     5.00000000E-01  5.00000000E-01  5.00000000E-01
          spgroup           1
           spinat      0.0000000000E+00  0.0000000000E+00  1.0000000000E+00
                       0.0000000000E+00  0.0000000000E+00  0.0000000000E+00
                       0.0000000000E+00  0.0000000000E+00  0.0000000000E+00
                       0.0000000000E+00  0.0000000000E+00  0.0000000000E+00
                       0.0000000000E+00  0.0000000000E+00  0.0000000000E+00
                       0.0000000000E+00  0.0000000000E+00  0.0000000000E+00
                       0.0000000000E+00  0.0000000000E+00  0.0000000000E+00
                       0.0000000000E+00  0.0000000000E+00  0.0000000000E+00
                       0.0000000000E+00  0.0000000000E+00  0.0000000000E+00
                       0.0000000000E+00  0.0000000000E+00  0.0000000000E+00
                       0.0000000000E+00  0.0000000000E+00  0.0000000000E+00
                       0.0000000000E+00  0.0000000000E+00  0.0000000000E+00
                       0.0000000000E+00  0.0000000000E+00  0.0000000000E+00
                       0.0000000000E+00  0.0000000000E+00  0.0000000000E+00
                       0.0000000000E+00  0.0000000000E+00  0.0000000000E+00
                       0.0000000000E+00  0.0000000000E+00  0.0000000000E+00
                       0.0000000000E+00  0.0000000000E+00  0.0000000000E+00
                       0.0000000000E+00  0.0000000000E+00 -1.0000000000E+00
           toldfe1     1.00000000E-06 Hartree
           toldfe2     0.00000000E+00 Hartree
           tolwfr1     0.00000000E+00
           tolwfr2     1.00000000E-12
            typat      2  1  1  1  1  1  1  1  1  1  1  1  1  1  1  1  1  2
           useylm           1
              wtk1       0.13333    0.13333    0.13333    0.13333    0.13333    0.13333
                         0.13333    0.06667
              wtk2       1.00000    1.00000    1.00000    1.00000    1.00000    1.00000
                         1.00000    1.00000    1.00000    1.00000    1.00000    1.00000
                         1.00000    1.00000    1.00000    1.00000
           xangst      2.1924687653E-06 -8.9347127982E+00  1.2253261414E+00
                      -6.3335522880E-06 -7.8374663590E+00  1.2252914015E+00
                      -1.2466279888E-05 -7.1553103483E+00 -9.0703680259E-03
                      -2.4889138031E-05 -5.7095725410E+00 -9.0145181006E-03
                      -3.0871693702E-05 -5.0013301057E+00  1.2253608862E+00
                      -4.2554247256E-05 -3.5682760068E+00  1.2253671991E+00
                      -4.7331677516E-05 -2.8569447694E+00 -8.9956653736E-03
                      -5.1814279312E-05 -1.4267271463E+00 -8.9761860125E-03
                      -5.0440741501E-05 -7.1470430595E-01  1.2253949192E+00
                      -3.9645629859E-05  7.1487653105E-01  1.2253974953E+00
                      -3.1339882842E-05  1.4268988477E+00 -8.9725857920E-03
                      -1.2927341998E-05  2.8571142755E+00 -8.9900137798E-03
                      -3.8630326290E-06  3.5684443157E+00  1.2253733133E+00
                       1.1398425826E-05  5.0014956819E+00  1.2253679131E+00
                       1.7259567710E-05  5.7097392667E+00 -9.0075717678E-03
                       2.3882826847E-05  7.1554797931E+00 -9.0650236494E-03
                       2.4511032039E-05  7.8376359584E+00  1.2252964978E+00
                       2.2583175635E-05  8.9348828407E+00  1.2253293079E+00
            xcart      4.1431655213E-06 -1.6884160265E+01  2.3155308307E+00
                      -1.1968679273E-05 -1.4810664994E+01  2.3154651818E+00
                      -2.3557854884E-05 -1.3521576954E+01 -1.7140511493E-02
                      -4.7033654562E-05 -1.0789528438E+01 -1.7034970430E-02
                      -5.8339046355E-05 -9.4511441999E+00  2.3155964889E+00
                      -8.0415873105E-05 -6.7430644194E+00  2.3156084185E+00
                      -8.9443907915E-05 -5.3988431909E+00 -1.6999343939E-02
                      -9.7914797673E-05 -2.6961235729E+00 -1.6962533281E-02
                      -9.5319187377E-05 -1.3505954042E+00  2.3156608019E+00
                      -7.4919382799E-05  1.3509208625E+00  2.3156656700E+00
                      -5.9223795608E-05  2.6964480415E+00 -1.6955729851E-02
                      -2.4429136002E-05  5.3991635111E+00 -1.6988663975E-02
                      -7.3000737112E-06  6.7433824771E+00  2.3156199727E+00
                       2.1539903157E-05  9.4514570936E+00  2.3156097678E+00
                       3.2615856144E-05  1.0789843504E+01 -1.7021843763E-02
                       4.5132002020E-05  1.3521897158E+01 -1.7130412085E-02
                       4.6319137788E-05  1.4810985491E+01  2.3154748124E+00
                       4.2676017161E-05  1.6884481598E+01  2.3155368145E+00
             xred      1.4616458439E-07 -2.5527750852E-01  4.9634001573E-01
                      -4.2223681918E-07 -2.2392761026E-01  4.9632594372E-01
                      -8.3108532585E-07 -2.0443743852E-01 -3.6741129211E-03
                      -1.6592758687E-06 -1.6313064403E-01 -3.6514899215E-03
                      -2.0581129135E-06 -1.4289514588E-01  4.9635408973E-01
                      -2.8369498171E-06 -1.0195074305E-01  4.9635664688E-01
                      -3.1554451678E-06 -8.1626993411E-02 -3.6438532911E-03
                      -3.4542852875E-06 -4.0763632751E-02 -3.6359628316E-03
                      -3.3627161001E-06 -2.0420123027E-02  4.9636787540E-01
                      -2.6430419906E-06  2.0425043744E-02  4.9636891889E-01
                      -2.0893255228E-06  4.0768538506E-02 -3.6345044986E-03
                      -8.6182279989E-07  8.1631836443E-02 -3.6415640132E-03
                      -2.5753550862E-07  1.0195555188E-01  4.9635912355E-01
                       7.5989505505E-07  1.4289987663E-01  4.9635693610E-01
                       1.1506378473E-06  1.6313540762E-01 -3.6486761866E-03
                       1.5921884565E-06  2.0444227980E-01 -3.6719480869E-03
                       1.6340688026E-06  2.2393245595E-01  4.9632800807E-01
                       1.5055450423E-06  2.5528236688E-01  4.9634129838E-01
            znucl        6.00000    1.00000

================================================================================

 chkinp: Checking input parameters for consistency, jdtset=   1.

 chkinp: Checking input parameters for consistency, jdtset=   2.

================================================================================
== DATASET  1 ==================================================================
-   nproc =    1

 Exchange-correlation functional for the present dataset will be:
  LDA: Perdew-Wang 92 Ex+Ec_RPA  energy - ixc=9
 Citation for XC functional:
  J.P.Perdew and Y.Wang, PRB 45, 13244 (1992)

 Real(R)+Recip(G) space primitive vectors, cartesian coordinates (Bohr,Bohr^-1):
 R(1)= 28.3458920  0.0000000  0.0000000  G(1)=  0.0352785  0.0000000  0.0000000
 R(2)=  0.0000000 66.1404147  0.0000000  G(2)=  0.0000000  0.0151193  0.0000000
 R(3)=  0.0000000  0.0000000  4.6652109  G(3)=  0.0000000  0.0000000  0.2143526
 Unit cell volume ucvol=  8.7463795E+03 bohr^3
 Angles (23,13,12)=  9.00000000E+01  9.00000000E+01  9.00000000E+01 degrees

 Coarse grid specifications (used for wave-functions):

 getcut: wavevector=  0.0000  0.0000  0.0000  ngfft=  72 180  12
         ecut(hartree)=     14.000   => boxcut(ratio)=   1.50804

 Fine grid specifications (used for densities):

 getcut: wavevector=  0.0000  0.0000  0.0000  ngfft= 125 288  20
         ecut(hartree)=     40.000   => boxcut(ratio)=   1.50579

--- Pseudopotential description ------------------------------------------------
- pspini: atom type   1  psp file is ../C.LDA_PW-JTH.xml
- pspatm: opening atomic psp file    ../C.LDA_PW-JTH.xml
- pspatm : Reading pseudopotential header in XML form from ../C.LDA_PW-JTH.xml
 Pseudopotential format is: paw10
 basis_size (lnmax)=  4 (lmn_size=  8), orbitals=   0   0   1   1
 Spheres core radius: rc_sph= 1.50736703
 1 radial meshes are used:
  - mesh 1: r(i)=AA*[exp(BB*(i-1))-1], size=2001 , AA= 0.94549E-03 BB= 0.56729E-02
 Shapefunction is SIN type: shapef(r)=[sin(pi*r/rshp)/(pi*r/rshp)]**2
 Radius for shape functions =  1.30052589
 mmax= 2001
 Radial grid used for partial waves is grid 1
 Radial grid used for projectors is grid 1
 Radial grid used for (t)core density is grid 1
 Radial grid used for Vloc is grid 1
 Radial grid used for pseudo valence density is grid 1
 Mesh size for Vloc has been set to 1756 to avoid numerical noise.
 Compensation charge density is not taken into account in XC energy/potential
 pspatm: atomic psp has been read  and splines computed

- pspini: atom type   2  psp file is ../H.LDA_PW-JTH.xml
- pspatm: opening atomic psp file    ../H.LDA_PW-JTH.xml
- pspatm : Reading pseudopotential header in XML form from ../H.LDA_PW-JTH.xml
 Pseudopotential format is: paw10
 basis_size (lnmax)=  3 (lmn_size=  5), orbitals=   0   0   1
 Spheres core radius: rc_sph= 0.89889493
 1 radial meshes are used:
  - mesh 1: r(i)=AA*[exp(BB*(i-1))-1], size=1500 , AA= 0.63034E-02 BB= 0.63034E-02
 Shapefunction is SIN type: shapef(r)=[sin(pi*r/rshp)/(pi*r/rshp)]**2
 Radius for shape functions =  0.79672474
 mmax= 1500
 Radial grid used for partial waves is grid 1
 Radial grid used for projectors is grid 1
 Radial grid used for (t)core density is grid 1
 Radial grid used for Vloc is grid 1
 Radial grid used for pseudo valence density is grid 1
 Mesh size for Vloc has been set to 1280 to avoid numerical noise.
 Compensation charge density is not taken into account in XC energy/potential
 pspatm: atomic psp has been read  and splines computed

   4.65654704E+03                                ecore*ucvol(ha*bohr**3)
--------------------------------------------------------------------------------

_setup2: Arith. and geom. avg. npw (full set) are   21881.467   21880.973

================================================================================

     iter   Etot(hartree)     deltaE(h) residm    nres2    magn
 ETOT  1  -94.775050972749    -9.48E+01 3.90E-02 4.14E+01 0.001
 ETOT  2  -94.569368095236     2.06E-01 4.75E-03 4.29E+00 0.027
 ETOT  3  -94.537343390970     3.20E-02 1.20E-03 8.68E-01 0.059
 ETOT  4  -94.538264946653    -9.22E-04 7.47E-04 7.38E-01 0.003
 ETOT  5  -94.537591003887     6.74E-04 5.14E-04 3.14E-01 0.008
 ETOT  6  -94.537663620873    -7.26E-05 3.68E-04 6.94E-02 0.009
 ETOT  7  -94.538209758995    -5.46E-04 8.80E-04 3.42E-02 0.011
 ETOT  8  -94.538462151164    -2.52E-04 4.66E-04 2.07E-02 0.006
 ETOT  9  -94.538134326100     3.28E-04 6.76E-04 1.09E-02 0.004
 ETOT 10  -94.537037320021     1.10E-03 3.48E-04 6.05E-03 0.006
 ETOT 11  -94.536075820958     9.61E-04 2.20E-04 3.25E-03 0.004
 ETOT 12  -94.535328964798     7.47E-04 8.32E-05 2.33E-03 0.004
 ETOT 13  -94.534630107199     6.99E-04 4.36E-05 1.74E-03 0.003
 ETOT 14  -94.534088174695     5.42E-04 4.52E-05 6.95E-04 0.001
 ETOT 15  -94.534060892670     2.73E-05 7.07E-05 3.74E-04 0.001
 ETOT 16  -94.534055045576     5.85E-06 2.04E-05 3.61E-04 0.001
 ETOT 17  -94.534063682719    -8.64E-06 4.69E-05 1.44E-04 0.000
 ETOT 18  -94.534084507820    -2.08E-05 8.47E-05 8.63E-05 0.000
 ETOT 19  -94.534098379665    -1.39E-05 6.34E-05 5.96E-05 0.000
 ETOT 20  -94.534101723106    -3.34E-06 9.45E-05 6.08E-05 0.001
 ETOT 21  -94.534093375150     8.35E-06 1.98E-04 3.41E-05 0.001
 ETOT 22  -94.534093288311     8.68E-08 2.14E-04 1.93E-05 0.001
 ETOT 23  -94.534093910703    -6.22E-07 1.81E-04 9.92E-06 0.001

 At SCF step   23, etot is converged : 
  for the second time, diff in etot=  6.224E-07 < toldfe=  1.000E-06

 Cartesian components of stress tensor (hartree/bohr^3)
  sigma(1 1)=  1.92676908E-06  sigma(3 2)=  3.81229941E-10
  sigma(2 2)=  5.55097391E-05  sigma(3 1)= -7.39793649E-12
  sigma(3 3)=  6.50701317E-05  sigma(2 1)=  7.94781865E-11

 Integrated electronic and magnetization densities in atomic spheres:
 ---------------------------------------------------------------------
 Note: Diff(up-dn) is a rough approximation of local magnetic moment
 Atom    Radius    up_density   dn_density  Total(up+dn)  Diff(up-dn)
    1   0.89889     0.219584     0.219589      0.439173    -0.000005
    2   1.50737     1.349484     1.348987      2.698471     0.000497
    3   1.50737     1.372315     1.372399      2.744714    -0.000085
    4   1.50737     1.373774     1.373648      2.747421     0.000126
    5   1.50737     1.376348     1.376386      2.752733    -0.000038
    6   1.50737     1.365660     1.365613      2.731274     0.000047
    7   1.50737     1.362170     1.362185      2.724355    -0.000016
    8   1.50737     1.369178     1.369154      2.738332     0.000025
    9   1.50737     1.371703     1.371715      2.743418    -0.000012
   10   1.50737     1.374246     1.374235      2.748481     0.000012
   11   1.50737     1.372142     1.372163      2.744305    -0.000020
   12   1.50737     1.362183     1.362175      2.724359     0.000008
   13   1.50737     1.365617     1.365649      2.731266    -0.000031
   14   1.50737     1.376385     1.376367      2.752753     0.000018
   15   1.50737     1.373673     1.373737      2.747410    -0.000064
   16   1.50737     1.372356     1.372320      2.744677     0.000036
   17   1.50737     1.350770     1.350991      2.701761    -0.000221
   18   0.89889     0.219635     0.219634      0.439269     0.000001
 ---------------------------------------------------------------------
  Sum:             22.327223    22.326947     44.654170     0.000276
 Total magnetization (from the atomic spheres):             0.000276
 Total magnetization (exact up - dn):                       0.000549

 PAW TEST:
 ==== Compensation charge inside spheres ============
 The following values must be close to each other ...
 Compensation charge over spherical meshes =      2.136501113391301
 Compensation charge over fine fft grid    =      2.136373361006263

 ==== Results concerning PAW augmentation regions ====

 Total pseudopotential strength Dij (hartree):
 Atom #  1 - Spin component 1
  -0.01708  -0.02576  -0.00023  -0.00000   0.00000
  -0.02576  -0.03868  -0.00036  -0.00000   0.00000
  -0.00023  -0.00036   0.00063  -0.00000   0.00000
  -0.00000  -0.00000  -0.00000   0.00066   0.00000
   0.00000   0.00000   0.00000   0.00000   0.00066
 Atom #  1 - Spin component 2
  -0.01708  -0.02576  -0.00023  -0.00000   0.00000
  -0.02576  -0.03868  -0.00036  -0.00000   0.00000
  -0.00023  -0.00036   0.00063  -0.00000   0.00000
  -0.00000  -0.00000  -0.00000   0.00066   0.00000
   0.00000   0.00000   0.00000   0.00000   0.00066
 Atom # 18 - Spin component 1
  -0.01708  -0.02576   0.00023  -0.00000   0.00000
  -0.02576  -0.03868   0.00036  -0.00000   0.00000
   0.00023   0.00036   0.00063   0.00000   0.00000
  -0.00000  -0.00000   0.00000   0.00066   0.00000
   0.00000   0.00000   0.00000   0.00000   0.00066
 Atom # 18 - Spin component 2
  -0.01708  -0.02576   0.00023  -0.00000   0.00000
  -0.02576  -0.03868   0.00036  -0.00000   0.00000
   0.00023   0.00036   0.00063   0.00000   0.00000
  -0.00000  -0.00000   0.00000   0.00066   0.00000
   0.00000   0.00000   0.00000   0.00000   0.00066


 Augmentation waves occupancies Rhoij:
 Atom #  1 - Spin component 1
   8.22057  -3.58304   1.03617  -0.00006  -0.00001
  -3.58304   1.56932  -0.45651   0.00002   0.00000
   1.03617  -0.45651   0.13502  -0.00001  -0.00000
  -0.00006   0.00002  -0.00001   0.02255   0.00000
  -0.00001   0.00000  -0.00000   0.00000   0.02896
 Atom #  1 - Spin component 2
   8.22034  -3.58288   1.03617  -0.00006  -0.00001
  -3.58288   1.56922  -0.45650   0.00002   0.00000
   1.03617  -0.45650   0.13502  -0.00001  -0.00000
  -0.00006   0.00002  -0.00001   0.02254   0.00000
  -0.00001   0.00000  -0.00000   0.00000   0.02890
 Atom # 18 - Spin component 1
   8.22041  -3.58293  -1.03617  -0.00006   0.00000
  -3.58293   1.56926   0.45651   0.00002  -0.00000
  -1.03617   0.45651   0.13502   0.00001  -0.00000
  -0.00006   0.00002   0.00001   0.02254   0.00000
   0.00000  -0.00000  -0.00000   0.00000   0.02892
 Atom # 18 - Spin component 2
   8.22059  -3.58304  -1.03615  -0.00006   0.00000
  -3.58304   1.56931   0.45650   0.00002  -0.00000
  -1.03615   0.45650   0.13501   0.00001  -0.00000
  -0.00006   0.00002   0.00001   0.02255   0.00000
   0.00000  -0.00000  -0.00000   0.00000   0.02894


================================================================================

 ----iterations are completed or convergence reached----

 Mean square residual over all n,k,spin=   4.9786E-07; max=  1.8111E-04
 reduced coordinates (array xred) for   18 atoms
       0.000000146165     -0.255277508520      0.496340015734
      -0.000000422237     -0.223927610257      0.496325943723
      -0.000000831085     -0.204437438523     -0.003674112921
      -0.000001659276     -0.163130644029     -0.003651489922
      -0.000002058113     -0.142895145877      0.496354089729
      -0.000002836950     -0.101950743051      0.496356646881
      -0.000003155445     -0.081626993411     -0.003643853291
      -0.000003454285     -0.040763632751     -0.003635962832
      -0.000003362716     -0.020420123027      0.496367875398
      -0.000002643042      0.020425043744      0.496368918893
      -0.000002089326      0.040768538506     -0.003634504499
      -0.000000861823      0.081631836443     -0.003641564013
      -0.000000257536      0.101955551877      0.496359123546
       0.000000759895      0.142899876626      0.496356936099
       0.000001150638      0.163135407620     -0.003648676187
       0.000001592188      0.204442279803     -0.003671948087
       0.000001634069      0.223932455954      0.496328008070
       0.000001505545      0.255282366877      0.496341298381
 rms dE/dt=  1.6585E-01; max dE/dt=  8.5852E-01; dE/dt below (all hartree)
    1      -0.000000139634     -0.020990809318      0.000043382997
    2       0.000008598095     -0.858637586907      0.000701705224
    3       0.000003576739      0.020391088080      0.001110554610
    4      -0.000021702183     -0.033641114956      0.000908712506
    5       0.000010881562      0.038403701452      0.000842313849
    6       0.000000235950      0.001315387526      0.000864878069
    7      -0.000010271694      0.033498164849      0.000775237534
    8       0.000011916512     -0.012931664304      0.000685690612
    9      -0.000024618272      0.027142249203      0.000943450059
   10      -0.000010089578     -0.027082780189      0.000942975690
   11      -0.000012081362      0.012925420017      0.000677961150
   12       0.000010858814     -0.033505746061      0.000776754974
   13      -0.000002989231     -0.001332040596      0.000874462012
   14       0.000000963534     -0.038919696037      0.000849762222
   15       0.000003351972      0.033530052152      0.000910543143
   16       0.000001641125     -0.020901873882      0.001103041352
   17       0.000001381420      0.858524513083      0.000700758016
   18      -0.000005714537      0.021048046417      0.000042653355

 cartesian coordinates (angstrom) at end:
    1      0.00000219246877    -8.93471279820000     1.22532614140000
    2     -0.00000633355229    -7.83746635900000     1.22529140150000
    3     -0.00001246627989    -7.15531034830000    -0.00907036802590
    4     -0.00002488913803    -5.70957254100000    -0.00901451810060
    5     -0.00003087169370    -5.00133010570000     1.22536088620000
    6     -0.00004255424726    -3.56827600680000     1.22536719910000
    7     -0.00004733167752    -2.85694476940000    -0.00899566537360
    8     -0.00005181427931    -1.42672714630000    -0.00897618601250
    9     -0.00005044074150    -0.71470430595000     1.22539491920000
   10     -0.00003964562986     0.71487653105000     1.22539749530000
   11     -0.00003133988284     1.42689884770000    -0.00897258579200
   12     -0.00001292734200     2.85711427550000    -0.00899001377980
   13     -0.00000386303263     3.56844431570000     1.22537331330000
   14      0.00001139842583     5.00149568190000     1.22536791310000
   15      0.00001725956771     5.70973926670000    -0.00900757176780
   16      0.00002388282685     7.15547979310000    -0.00906502364940
   17      0.00002451103204     7.83763595840000     1.22529649780000
   18      0.00002258317563     8.93488284070000     1.22532930790000

 cartesian forces (hartree/bohr) at end:
    1     -0.00000006210454     0.00031638907101     0.00015449990513
    2     -0.00000037035836     0.01298106288670     0.00001338683501
    3     -0.00000019321253    -0.00030927827046    -0.00007425108725
    4      0.00000069858944     0.00050765345458    -0.00003098571079
    5     -0.00000045091558    -0.00058161725514    -0.00001675298699
    6     -0.00000007535459    -0.00002086609986    -0.00002158968598
    7      0.00000029533915    -0.00050744873610    -0.00000237500560
    8     -0.00000048742706     0.00019454004637     0.00001681960853
    9      0.00000080146462    -0.00041135143039    -0.00003843179491
   10      0.00000028891436     0.00040849570358    -0.00003833011274
   11      0.00000035918148    -0.00019640223087     0.00001847643852
   12     -0.00000045011308     0.00050560676505    -0.00000270027280
   13      0.00000003842490     0.00001916128939    -0.00002364402880
   14     -0.00000010102262     0.00058746216321    -0.00001834956510
   15     -0.00000018528310    -0.00050793085136    -0.00003137811255
   16     -0.00000012492702     0.00031504442513    -0.00007264060093
   17     -0.00000011576501    -0.01298130987814     0.00001358987154
   18      0.00000013456955    -0.00031921105271     0.00015465630571
 frms,max,avg= 2.5078062E-03 1.2981310E-02   6.703E-08  9.783E-07 -1.638E-04 h/b

 cartesian forces (eV/Angstrom) at end:
    1     -0.00000319354370     0.01626937880294     0.00794470388488
    2     -0.00001904459117     0.66751303606193     0.00068837867568
    3     -0.00000993538690    -0.01590372676744    -0.00381814410086
    4      0.00003592291018     0.02610458802121    -0.00159334917816
    5     -0.00002318700951    -0.02990795924725    -0.00086147315572
    6     -0.00000387488868    -0.00107297790553    -0.00111018619657
    7      0.00001518694846    -0.02609406097471    -0.00012212768812
    8     -0.00002506450493     0.01000365055802     0.00086489897283
    9      0.00004121296423    -0.02115253924760    -0.00197624218650
   10      0.00001485657242     0.02100569188337    -0.00197101347933
   11      0.00001846985291    -0.01009940792680     0.00095009658905
   12     -0.00002314574341     0.02599934302266    -0.00013885359842
   13      0.00000197588764     0.00098531303363    -0.00121582474302
   14     -0.00000519479162     0.03020851647954    -0.00094357249590
   15     -0.00000952763936    -0.02611885233583    -0.00161352728641
   16     -0.00000642400498     0.01620023433759    -0.00373532957153
   17     -0.00000595287541    -0.66752573687163     0.00069881923302
   18      0.00000691984384    -0.01641449092408     0.00795274632508
 frms,max,avg= 1.2895657E-01 6.6752574E-01   3.447E-06  5.031E-05 -8.423E-03 e/A
 length scales= 28.345891993000 66.140414651000  4.665210858100 bohr
              = 14.999999999849 35.000000000001  2.468723259373 angstroms
 prteigrs : about to open file zgnro_DS1_EIG
 Fermi (or HOMO) energy (hartree) =  -0.13941   Average Vxc (hartree)=  -0.08437
 Magnetization (Bohr magneton)=  5.48606838E-04
 Total spin up =  3.30002743E+01   Total spin down =  3.29997257E+01
 Eigenvalues (hartree) for nkpt=   8  k points, SPIN UP:
 kpt#   1, nband= 42, wtk=  0.13333, kpt=  0.0000  0.0000  0.0333 (reduced coord)
  -0.84114   -0.83089   -0.81567   -0.79525   -0.76959   -0.73894   -0.70410   -0.66923
  -0.59827   -0.55556   -0.50709   -0.45590   -0.41150   -0.40395   -0.39994   -0.38263
  -0.37237   -0.36351   -0.35958   -0.35386   -0.35039   -0.33321   -0.33121   -0.31434
  -0.30786   -0.29863   -0.29227   -0.27399   -0.27245   -0.26451   -0.25834   -0.25519
  -0.23576   -0.06258   -0.02699   -0.00586   -0.00297   -0.00111    0.00921    0.01245
   0.01287    0.02146
      occupation numbers for kpt#   1
   1.00000    1.00000    1.00000    1.00000    1.00000    1.00000    1.00000    1.00000
   1.00000    1.00000    1.00000    1.00000    1.00000    1.00000    1.00000    1.00000
   1.00000    1.00000    1.00000    1.00000    1.00000    1.00000    1.00000    1.00000
   1.00000    1.00000    1.00000    1.00000    1.00000    1.00000    1.00000    1.00000
   1.00000    0.00000    0.00000    0.00000    0.00000    0.00000    0.00000    0.00000
   0.00000    0.00000
 prteigrs : prtvol=0 or 1, do not print more k-points.

 Eigenvalues (hartree) for nkpt=   8  k points, SPIN DOWN:
 kpt#   1, nband= 42, wtk=  0.13333, kpt=  0.0000  0.0000  0.0333 (reduced coord)
  -0.84114   -0.83089   -0.81567   -0.79525   -0.76959   -0.73893   -0.70410   -0.66923
  -0.59827   -0.55556   -0.50708   -0.45590   -0.41150   -0.40395   -0.39994   -0.38262
  -0.37237   -0.36351   -0.35958   -0.35386   -0.35039   -0.33321   -0.33121   -0.31434
  -0.30786   -0.29862   -0.29227   -0.27399   -0.27244   -0.26450   -0.25834   -0.25519
  -0.23575   -0.06258   -0.02698   -0.00586   -0.00295   -0.00112    0.00922    0.01244
   0.01288    0.02145
      occupation numbers for kpt#   1
   1.00000    1.00000    1.00000    1.00000    1.00000    1.00000    1.00000    1.00000
   1.00000    1.00000    1.00000    1.00000    1.00000    1.00000    1.00000    1.00000
   1.00000    1.00000    1.00000    1.00000    1.00000    1.00000    1.00000    1.00000
   1.00000    1.00000    1.00000    1.00000    1.00000    1.00000    1.00000    1.00000
   1.00000    0.00000    0.00000    0.00000    0.00000    0.00000    0.00000    0.00000
   0.00000    0.00000
 prteigrs : prtvol=0 or 1, do not print more k-points.


--------------------------------------------------------------------------------
 Components of total free energy (in Hartree) :

    Kinetic energy  =  5.53076132118655E+01
    Hartree energy  =  5.69351940353306E+02
    XC energy       = -3.58022952660501E+01
    Ewald energy    =  4.96893947207394E+02
    PspCore energy  =  5.32397092867825E-01
    Loc. psp. energy= -1.19263600434212E+03
    Spherical terms =  1.18217001778415E+01
    >>>>> Internal E= -9.45307015648935E+01

    -kT*entropy     = -3.24029312152497E-03
    >>>>>>>>> Etotal= -9.45339418580151E+01

 "Double-counting" decomposition of free energy:
    Band energy     = -3.05970704537560E+01
    Ewald energy    =  4.96893947207394E+02
    PspCore energy  =  5.32397092867825E-01
    Dble-C XC-energy= -5.67701579494769E+02
    Spherical terms =  6.34145203068102E+00
    >>>>> Internal E= -9.45308536175819E+01

    -kT*entropy     = -3.24029312152497E-03
    >>>> Etotal (DC)= -9.45340939107034E+01

  >Total energy in eV           = -2.57239937969737E+03
  >Total DC energy in eV        = -2.57240351726144E+03
--------------------------------------------------------------------------------

 Cartesian components of stress tensor (hartree/bohr^3)
  sigma(1 1)=  1.92676908E-06  sigma(3 2)=  3.81229941E-10
  sigma(2 2)=  5.55097391E-05  sigma(3 1)= -7.39793649E-12
  sigma(3 3)=  6.50701317E-05  sigma(2 1)=  7.94781865E-11

-Cartesian components of stress tensor (GPa)         [Pressure= -1.2014E+00 GPa]
- sigma(1 1)=  5.66874941E-02  sigma(3 2)=  1.12161702E-05
- sigma(2 2)=  1.63315263E+00  sigma(3 1)= -2.17654769E-07
- sigma(3 3)=  1.91442905E+00  sigma(2 1)=  2.33832858E-06

================================================================================
== DATASET  2 ==================================================================
-   nproc =    1

 mkfilename : getden/=0, take file _DEN from output of DATASET   1.

 Exchange-correlation functional for the present dataset will be:
  LDA: Perdew-Wang 92 Ex+Ec_RPA  energy - ixc=9
 Citation for XC functional:
  J.P.Perdew and Y.Wang, PRB 45, 13244 (1992)

 Real(R)+Recip(G) space primitive vectors, cartesian coordinates (Bohr,Bohr^-1):
 R(1)= 28.3458920  0.0000000  0.0000000  G(1)=  0.0352785  0.0000000  0.0000000
 R(2)=  0.0000000 66.1404147  0.0000000  G(2)=  0.0000000  0.0151193  0.0000000
 R(3)=  0.0000000  0.0000000  4.6652109  G(3)=  0.0000000  0.0000000  0.2143526
 Unit cell volume ucvol=  8.7463795E+03 bohr^3
 Angles (23,13,12)=  9.00000000E+01  9.00000000E+01  9.00000000E+01 degrees

 Coarse grid specifications (used for wave-functions):

 getcut: wavevector=  0.0000  0.0000  0.0000  ngfft=  72 180  12
         ecut(hartree)=     14.000   => boxcut(ratio)=   1.50804

 Fine grid specifications (used for densities):

 getcut: wavevector=  0.0000  0.0000  0.0000  ngfft= 125 288  20
         ecut(hartree)=     40.000   => boxcut(ratio)=   1.50579
--------------------------------------------------------------------------------


================================================================================
 prteigrs : about to open file zgnro_DS2_EIG

 SPIN UP channel
 Non-SCF case, kpt    1 (  0.00000  0.00000  0.00000), residuals and eigenvalues=
  7.16E-13  4.79E-13  7.93E-13  7.97E-13  5.59E-13  6.96E-13  2.40E-13  8.57E-13
  1.74E-13  3.03E-13  1.83E-13  6.59E-13  4.34E-13  9.67E-13  3.80E-13  1.87E-13
  3.82E-13  9.85E-13  6.43E-13  7.62E-13  4.11E-13  4.39E-13  1.30E-13  8.60E-13
  1.44E-13  9.75E-13  3.96E-13  4.84E-13  4.96E-13  1.51E-13  2.92E-13  8.36E-13
  5.72E-13  3.29E-13  6.16E-13  6.55E-13  5.70E-13  9.84E-13  2.56E-08  1.19E-08
 -8.4215E-01 -8.3190E-01 -8.1668E-01 -7.9625E-01 -7.7058E-01 -7.3991E-01
 -7.0506E-01 -6.7015E-01 -5.9917E-01 -5.5641E-01 -5.0785E-01 -4.5652E-01
 -4.1266E-01 -4.0434E-01 -4.0109E-01 -3.8377E-01 -3.6949E-01 -3.6072E-01
 -3.6062E-01 -3.5384E-01 -3.4759E-01 -3.3235E-01 -3.3063E-01 -3.1063E-01
 -3.0866E-01 -2.9976E-01 -2.8940E-01 -2.7362E-01 -2.6982E-01 -2.6564E-01
 -2.5587E-01 -2.5429E-01 -2.3692E-01 -6.2706E-02 -2.7134E-02 -6.4498E-03
 -3.3101E-03 -1.6869E-03  8.4882E-03  1.1933E-02
  prteigrs : nnsclo,ikpt=   80    1 max resid (incl. the buffer)=  2.56311E-08
 Non-SCF case, kpt    2 (  0.00000  0.00000  0.03333), residuals and eigenvalues=
  4.93E-13  7.62E-13  4.39E-13  2.53E-13  4.50E-13  9.12E-13  1.68E-13  7.07E-13
  3.42E-13  8.97E-13  3.21E-13  4.58E-13  1.39E-13  2.15E-13  5.10E-13  4.45E-13
  9.34E-13  8.76E-13  6.13E-13  5.29E-13  3.76E-13  8.23E-13  9.53E-13  2.50E-13
  2.53E-13  3.76E-13  3.73E-13  7.39E-13  4.29E-13  5.56E-13  7.91E-13  6.67E-13
  4.12E-13  9.41E-13  7.35E-13  6.71E-13  8.76E-13  8.94E-13  2.67E-09  1.58E-10
 -8.4143E-01 -8.3118E-01 -8.1596E-01 -7.9554E-01 -7.6988E-01 -7.3923E-01
 -7.0439E-01 -6.6952E-01 -5.9856E-01 -5.5585E-01 -5.0738E-01 -4.5619E-01
 -4.1180E-01 -4.0424E-01 -4.0023E-01 -3.8292E-01 -3.7266E-01 -3.6380E-01
 -3.5988E-01 -3.5415E-01 -3.5068E-01 -3.3350E-01 -3.3151E-01 -3.1463E-01
 -3.0815E-01 -2.9892E-01 -2.9256E-01 -2.7428E-01 -2.7274E-01 -2.6480E-01
 -2.5863E-01 -2.5548E-01 -2.3605E-01 -6.2868E-02 -2.7258E-02 -5.4927E-03
 -2.3949E-03 -7.4409E-04  9.4307E-03  1.2878E-02
  prteigrs : nnsclo,ikpt=   80    2 max resid (incl. the buffer)=  2.67333E-09
 Non-SCF case, kpt    3 (  0.00000  0.00000  0.06667), residuals and eigenvalues=
  6.64E-13  4.57E-13  4.43E-13  5.40E-13  3.77E-13  6.05E-13  2.17E-13  9.74E-13
  3.80E-13  8.20E-13  4.94E-13  3.83E-13  3.60E-13  3.40E-13  1.71E-13  2.63E-13
  3.71E-13  3.69E-13  8.05E-13  2.03E-13  5.64E-13  8.29E-13  5.91E-13  7.53E-13
  8.59E-13  7.67E-13  5.45E-13  5.12E-13  7.65E-13  3.59E-13  3.07E-13  4.99E-13
  4.52E-13  6.93E-13  5.40E-13  9.51E-13  8.59E-13  7.04E-13  2.29E-09  1.26E-05
 -8.3927E-01 -8.2904E-01 -8.1383E-01 -7.9343E-01 -7.6780E-01 -7.3718E-01
 -7.0240E-01 -6.6763E-01 -5.9675E-01 -5.5419E-01 -5.0599E-01 -4.5525E-01
 -4.0921E-01 -4.0407E-01 -3.9766E-01 -3.8180E-01 -3.8036E-01 -3.7289E-01
 -3.5951E-01 -3.5734E-01 -3.5571E-01 -3.4129E-01 -3.2900E-01 -3.2384E-01
 -3.0928E-01 -3.0132E-01 -2.9643E-01 -2.8086E-01 -2.7696E-01 -2.6621E-01
 -2.6230E-01 -2.5908E-01 -2.3348E-01 -6.3419E-02 -2.7717E-02 -2.6294E-03
  3.3606E-04  2.0792E-03  1.2255E-02  1.4990E-02
  prteigrs : nnsclo,ikpt=   80    3 max resid (incl. the buffer)=  1.26205E-05
 Non-SCF case, kpt    4 (  0.00000  0.00000  0.10000), residuals and eigenvalues=
  4.33E-13  8.81E-13  5.52E-13  6.66E-13  6.31E-13  7.11E-13  1.65E-13  3.32E-13
  7.41E-13  4.84E-13  9.15E-13  2.46E-13  2.29E-13  8.09E-13  5.97E-13  8.53E-13
  6.90E-13  2.83E-13  6.84E-13  2.40E-13  3.95E-13  5.01E-13  5.68E-13  7.90E-13
  7.68E-13  1.39E-13  1.95E-13  7.28E-13  4.49E-13  6.53E-13  4.00E-13  3.15E-13
  6.46E-13  9.14E-13  5.04E-13  9.24E-13  6.57E-13  8.74E-13  4.13E-06  1.75E-08
 -8.3569E-01 -8.2546E-01 -8.1028E-01 -7.8991E-01 -7.6432E-01 -7.3377E-01
 -6.9909E-01 -6.6447E-01 -5.9374E-01 -5.5148E-01 -5.0376E-01 -4.5386E-01
 -4.0492E-01 -4.0437E-01 -3.9595E-01 -3.9339E-01 -3.8696E-01 -3.7612E-01
 -3.7300E-01 -3.6202E-01 -3.5313E-01 -3.5012E-01 -3.3722E-01 -3.2483E-01
 -3.1397E-01 -3.1311E-01 -2.9228E-01 -2.9210E-01 -2.8460E-01 -2.7521E-01
 -2.6522E-01 -2.5812E-01 -2.2917E-01 -6.4595E-02 -2.8811E-02  2.1129E-03
  4.8401E-03  6.7672E-03  1.3563E-02  1.6948E-02
  prteigrs : nnsclo,ikpt=   80    4 max resid (incl. the buffer)=  4.13293E-06
 Non-SCF case, kpt    5 (  0.00000  0.00000  0.13333), residuals and eigenvalues=
  5.31E-13  5.27E-13  2.03E-13  9.40E-13  5.11E-13  2.56E-13  8.14E-13  8.31E-13
  2.62E-13  7.70E-13  2.82E-13  6.18E-13  8.33E-13  6.81E-13  7.20E-13  3.68E-13
  1.39E-13  1.37E-13  8.73E-13  5.72E-13  2.11E-13  7.55E-13  3.67E-13  1.66E-13
  2.22E-13  6.59E-13  4.69E-13  5.14E-13  4.03E-13  7.70E-13  1.84E-13  9.23E-13
  5.45E-13  8.62E-13  8.76E-13  6.57E-13  7.58E-13  8.58E-13  3.69E-13  8.17E-13
 -8.3068E-01 -8.2047E-01 -8.0531E-01 -7.8499E-01 -7.5947E-01 -7.2901E-01
 -6.9448E-01 -6.6006E-01 -5.8964E-01 -5.4781E-01 -5.0088E-01 -4.5244E-01
 -4.1437E-01 -4.0635E-01 -4.0469E-01 -3.9892E-01 -3.8886E-01 -3.8741E-01
 -3.7654E-01 -3.7019E-01 -3.5678E-01 -3.5311E-01 -3.4726E-01 -3.2766E-01
 -3.2273E-01 -3.1902E-01 -3.0210E-01 -2.9965E-01 -2.8653E-01 -2.8217E-01
 -2.7380E-01 -2.5233E-01 -2.2318E-01 -6.6699E-02 -3.0919E-02  8.6771E-03
  1.1042E-02  1.2097E-02  1.3305E-02  2.3499E-02
 Non-SCF case, kpt    6 (  0.00000  0.00000  0.16667), residuals and eigenvalues=
  5.10E-13  5.93E-13  2.14E-13  5.30E-13  2.66E-13  3.08E-13  5.20E-13  2.41E-13
  8.21E-13  3.87E-13  6.81E-13  2.04E-13  3.69E-13  9.25E-13  5.43E-13  8.00E-13
  9.71E-13  8.20E-13  9.81E-14  8.43E-13  1.70E-13  3.34E-13  3.15E-13  3.76E-13
  9.10E-13  7.42E-14  3.00E-13  2.86E-13  4.68E-13  4.99E-13  6.75E-13  4.71E-13
  3.34E-13  4.96E-13  8.67E-13  7.37E-13  9.02E-13  9.08E-13  9.78E-13  2.61E-13
 -8.2425E-01 -8.1406E-01 -7.9893E-01 -7.7867E-01 -7.5324E-01 -7.2291E-01
 -6.8856E-01 -6.5441E-01 -5.8457E-01 -5.4339E-01 -4.9775E-01 -4.5221E-01
 -4.3494E-01 -4.2446E-01 -4.1670E-01 -4.0200E-01 -3.9421E-01 -3.9124E-01
 -3.7976E-01 -3.6825E-01 -3.6820E-01 -3.6260E-01 -3.3978E-01 -3.3951E-01
 -3.3745E-01 -3.1859E-01 -3.1165E-01 -3.0844E-01 -2.8954E-01 -2.8457E-01
 -2.7922E-01 -2.4497E-01 -2.1555E-01 -7.0169E-02 -3.4552E-02  8.4211E-03
  1.6947E-02  1.8830E-02  2.1696E-02  3.1911E-02
 Non-SCF case, kpt    7 (  0.00000  0.00000  0.20000), residuals and eigenvalues=
  5.06E-13  3.42E-13  6.56E-13  5.65E-13  3.71E-13  1.91E-13  4.54E-13  1.86E-13
  8.79E-13  5.25E-13  2.38E-13  2.91E-13  5.87E-13  3.43E-13  3.72E-13  3.45E-13
  3.02E-13  4.91E-13  1.71E-13  1.58E-13  2.13E-13  4.56E-13  3.93E-13  5.26E-13
  5.17E-13  3.21E-13  9.64E-13  5.08E-13  2.72E-13  1.85E-13  2.03E-13  7.43E-13
  5.16E-13  4.88E-13  9.59E-13  8.47E-13  7.80E-13  9.70E-13  3.20E-11  1.59E-08
 -8.1640E-01 -8.0624E-01 -7.9116E-01 -7.7097E-01 -7.4565E-01 -7.1548E-01
 -6.8136E-01 -6.4753E-01 -5.7880E-01 -5.3868E-01 -4.9553E-01 -4.5720E-01
 -4.5682E-01 -4.4357E-01 -4.3437E-01 -4.1544E-01 -4.0999E-01 -3.8647E-01
 -3.8191E-01 -3.7732E-01 -3.7049E-01 -3.5995E-01 -3.5342E-01 -3.4248E-01
 -3.3900E-01 -3.3072E-01 -3.1382E-01 -3.0274E-01 -2.9825E-01 -2.9719E-01
 -2.7043E-01 -2.3613E-01 -2.0629E-01 -7.5475E-02 -4.0256E-02  1.7975E-03
  2.6706E-02  2.8043E-02  3.1986E-02  4.2207E-02
  prteigrs : nnsclo,ikpt=   80    7 max resid (incl. the buffer)=  1.59072E-08
 Non-SCF case, kpt    8 (  0.00000  0.00000  0.23333), residuals and eigenvalues=
  2.65E-13  2.93E-13  6.94E-13  3.29E-13  2.75E-13  3.66E-13  3.49E-13  2.23E-13
  5.63E-13  1.34E-13  1.75E-13  2.16E-13  4.54E-13  2.07E-13  4.02E-13  1.68E-13
  4.80E-13  7.12E-13  2.45E-13  2.47E-13  2.51E-13  2.00E-13  3.67E-13  5.98E-13
  4.36E-13  4.30E-13  7.70E-13  1.02E-13  1.56E-13  2.72E-13  1.85E-13  3.98E-13
  5.26E-13  5.52E-13  9.22E-13  6.44E-13  8.29E-13  7.50E-13  9.99E-13  7.17E-13
 -8.0715E-01 -7.9703E-01 -7.8201E-01 -7.6191E-01 -7.3671E-01 -7.0673E-01
 -6.7290E-01 -6.3941E-01 -5.7295E-01 -5.3490E-01 -4.9752E-01 -4.7840E-01
 -4.7209E-01 -4.6029E-01 -4.5031E-01 -4.3437E-01 -4.1862E-01 -4.0738E-01
 -3.8418E-01 -3.7761E-01 -3.7096E-01 -3.6175E-01 -3.5961E-01 -3.4408E-01
 -3.4267E-01 -3.2014E-01 -3.2006E-01 -3.1095E-01 -3.0835E-01 -2.9237E-01
 -2.6027E-01 -2.2591E-01 -1.9550E-01 -8.3062E-02 -4.8395E-02 -8.0219E-03
  3.2723E-02  3.7637E-02  3.8473E-02  4.4267E-02
 Non-SCF case, kpt    9 (  0.00000  0.00000  0.26667), residuals and eigenvalues=
  2.28E-13  5.56E-13  6.73E-13  5.96E-13  5.31E-13  9.88E-13  5.61E-13  1.79E-13
  4.54E-13  3.30E-13  1.86E-13  2.55E-13  3.65E-13  4.97E-13  5.38E-13  8.79E-13
  4.44E-13  2.07E-13  6.05E-13  2.58E-13  2.38E-13  5.18E-13  4.11E-13  2.85E-13
  6.69E-13  4.43E-13  9.24E-13  7.02E-13  4.66E-13  3.82E-13  3.55E-13  2.22E-13
  8.51E-13  8.33E-13  4.38E-13  4.47E-13  8.12E-13  5.31E-13  5.45E-13  9.40E-06
 -7.9653E-01 -7.8644E-01 -7.7149E-01 -7.5149E-01 -7.2645E-01 -6.9671E-01
 -6.6323E-01 -6.3010E-01 -5.6865E-01 -5.3560E-01 -5.0886E-01 -4.9765E-01
 -4.8836E-01 -4.7845E-01 -4.6153E-01 -4.5180E-01 -4.3300E-01 -4.1597E-01
 -4.0602E-01 -3.8420E-01 -3.7794E-01 -3.5844E-01 -3.4719E-01 -3.4613E-01
 -3.3043E-01 -3.3033E-01 -3.2284E-01 -3.1968E-01 -3.0817E-01 -2.8073E-01
 -2.4894E-01 -2.1460E-01 -1.8330E-01 -9.3153E-02 -5.9092E-02 -2.0929E-02
  1.7146E-02  4.9399E-02  4.9880E-02  5.3773E-02
  prteigrs : nnsclo,ikpt=   80    9 max resid (incl. the buffer)=  9.40492E-06
 Non-SCF case, kpt   10 (  0.00000  0.00000  0.30000), residuals and eigenvalues=
  8.68E-13  6.24E-13  7.49E-13  2.42E-13  1.46E-13  7.20E-13  3.14E-13  6.70E-13
  3.85E-13  3.33E-13  4.02E-13  4.73E-13  2.91E-13  3.81E-13  5.95E-13  7.33E-13
  4.59E-13  1.70E-13  9.32E-13  1.33E-13  3.39E-13  8.53E-13  7.29E-13  4.16E-13
  7.36E-13  5.02E-13  9.61E-14  8.78E-13  1.02E-13  2.55E-13  4.88E-13  5.75E-13
  4.48E-13  6.59E-13  6.07E-13  6.27E-13  4.28E-13  7.48E-13  7.09E-09  9.69E-09
 -7.8455E-01 -7.7450E-01 -7.5962E-01 -7.3974E-01 -7.1490E-01 -6.8547E-01
 -6.5243E-01 -6.1965E-01 -5.6993E-01 -5.4596E-01 -5.2701E-01 -5.1134E-01
 -5.0648E-01 -4.8722E-01 -4.8232E-01 -4.5599E-01 -4.5192E-01 -4.2908E-01
 -4.1270E-01 -4.0669E-01 -3.7610E-01 -3.4875E-01 -3.4595E-01 -3.4441E-01
 -3.3331E-01 -3.3179E-01 -3.3129E-01 -3.1681E-01 -2.9493E-01 -2.6801E-01
 -2.3679E-01 -2.0266E-01 -1.6997E-01 -1.0550E-01 -7.1744E-02 -3.6149E-02
 -1.1890E-03  3.2607E-02  6.1715E-02  6.2021E-02
  prteigrs : nnsclo,ikpt=   80   10 max resid (incl. the buffer)=  9.68967E-09
 Non-SCF case, kpt   11 (  0.00000  0.00000  0.33333), residuals and eigenvalues=
  7.64E-13  6.80E-13  7.53E-13  4.61E-13  1.42E-13  3.31E-13  4.02E-13  4.62E-13
  1.85E-13  2.50E-13  2.69E-13  4.34E-13  4.87E-13  2.33E-13  5.04E-13  1.67E-13
  8.43E-13  7.54E-13  8.21E-13  2.66E-13  1.66E-13  4.89E-13  5.60E-13  8.47E-13
  4.87E-13  4.31E-13  3.34E-13  8.45E-13  2.75E-13  4.96E-13  4.93E-13  3.72E-13
  3.45E-13  6.50E-13  6.64E-13  6.76E-13  8.29E-13  8.88E-13  3.50E-09  5.35E-05
 -7.7122E-01 -7.6122E-01 -7.4644E-01 -7.2671E-01 -7.0211E-01 -6.7310E-01
 -6.4077E-01 -6.0823E-01 -5.8083E-01 -5.6398E-01 -5.4832E-01 -5.2890E-01
 -5.1385E-01 -5.0529E-01 -4.8406E-01 -4.7862E-01 -4.5254E-01 -4.4510E-01
 -4.2914E-01 -4.0713E-01 -3.7395E-01 -3.6311E-01 -3.5363E-01 -3.4305E-01
 -3.3970E-01 -3.2894E-01 -3.1806E-01 -3.0193E-01 -2.8064E-01 -2.5457E-01
 -2.2442E-01 -1.9121E-01 -1.5623E-01 -1.1920E-01 -8.4945E-02 -5.2474E-02
 -2.0901E-02  1.0178E-02  4.0146E-02  6.8070E-02
  prteigrs : nnsclo,ikpt=   80   11 max resid (incl. the buffer)=  5.34805E-05
 Non-SCF case, kpt   12 (  0.00000  0.00000  0.36667), residuals and eigenvalues=
  3.82E-13  8.51E-13  3.78E-13  1.80E-13  7.37E-13  4.05E-13  1.66E-13  6.00E-13
  5.45E-13  1.42E-13  1.75E-13  2.51E-13  2.97E-13  4.52E-13  4.68E-13  1.46E-13
  4.78E-13  6.89E-13  3.31E-13  3.96E-13  2.74E-13  3.04E-13  2.88E-13  2.93E-13
  6.99E-13  1.94E-13  7.70E-13  3.52E-13  3.15E-13  7.44E-13  4.35E-13  1.51E-13
  6.04E-13  5.62E-13  6.72E-13  9.21E-13  7.59E-13  8.09E-13  3.51E-10  1.04E-06
 -7.5659E-01 -7.4665E-01 -7.3198E-01 -7.1244E-01 -6.8819E-01 -6.5988E-01
 -6.2948E-01 -5.9773E-01 -5.9735E-01 -5.8254E-01 -5.7045E-01 -5.5178E-01
 -5.2906E-01 -5.0650E-01 -5.0271E-01 -4.7479E-01 -4.7411E-01 -4.5092E-01
 -4.3682E-01 -4.0089E-01 -3.8108E-01 -3.7188E-01 -3.6411E-01 -3.5009E-01
 -3.4857E-01 -3.1216E-01 -3.0159E-01 -2.8604E-01 -2.6569E-01 -2.4107E-01
 -2.1313E-01 -1.8325E-01 -1.4430E-01 -1.3172E-01 -9.5093E-02 -6.7868E-02
 -4.0518E-02 -1.2452E-02  1.5530E-02  4.0943E-02
  prteigrs : nnsclo,ikpt=   80   12 max resid (incl. the buffer)=  1.03899E-06
 Non-SCF case, kpt   13 (  0.00000  0.00000  0.40000), residuals and eigenvalues=
  8.65E-13  4.53E-13  1.43E-13  1.65E-13  2.21E-13  3.68E-13  1.92E-13  5.22E-13
  2.88E-13  3.27E-13  1.56E-13  1.21E-13  2.24E-13  4.81E-13  4.87E-13  1.76E-13
  4.20E-13  3.88E-13  1.77E-13  3.33E-13  7.39E-13  2.30E-13  7.75E-13  9.22E-13
  4.33E-13  5.46E-13  2.70E-13  7.94E-13  8.73E-13  6.00E-13  2.25E-13  4.52E-13
  2.11E-13  2.80E-13  3.74E-13  3.18E-13  5.23E-13  4.20E-13  2.45E-10  3.46E-07
 -7.4070E-01 -7.3083E-01 -7.1631E-01 -6.9706E-01 -6.7341E-01 -6.4701E-01
 -6.2865E-01 -6.0742E-01 -6.0606E-01 -5.9083E-01 -5.7983E-01 -5.7316E-01
 -5.5150E-01 -5.2501E-01 -4.9722E-01 -4.9489E-01 -4.7217E-01 -4.6286E-01
 -4.2710E-01 -3.9897E-01 -3.9431E-01 -3.7793E-01 -3.7132E-01 -3.5714E-01
 -3.5486E-01 -2.9417E-01 -2.8408E-01 -2.6946E-01 -2.5070E-01 -2.2877E-01
 -2.0554E-01 -1.8483E-01 -1.3913E-01 -1.3839E-01 -9.4902E-02 -7.8880E-02
 -5.8110E-02 -3.4049E-02 -8.5134E-03  1.5408E-02
  prteigrs : nnsclo,ikpt=   80   13 max resid (incl. the buffer)=  3.46279E-07
 Non-SCF case, kpt   14 (  0.00000  0.00000  0.43333), residuals and eigenvalues=
  7.52E-13  2.87E-13  1.74E-13  5.80E-13  3.75E-13  7.77E-13  2.48E-13  7.98E-13
  8.46E-13  9.21E-13  3.27E-13  3.43E-13  2.60E-13  5.42E-13  1.05E-13  6.90E-13
  9.62E-13  3.44E-13  2.87E-13  6.30E-13  4.24E-13  4.33E-13  3.53E-13  4.06E-13
  1.33E-13  4.87E-13  6.30E-13  3.24E-13  9.73E-13  1.90E-13  5.87E-13  4.25E-13
  2.21E-13  2.26E-13  5.52E-13  8.33E-13  4.77E-13  5.45E-13  8.29E-10  1.74E-06
 -7.2359E-01 -7.1383E-01 -6.9952E-01 -6.8078E-01 -6.5880E-01 -6.4594E-01
 -6.4298E-01 -6.1702E-01 -6.1499E-01 -5.9543E-01 -5.9061E-01 -5.7285E-01
 -5.6400E-01 -5.4643E-01 -5.1778E-01 -4.9247E-01 -4.8199E-01 -4.5031E-01
 -4.1679E-01 -4.1664E-01 -3.9306E-01 -3.8737E-01 -3.7506E-01 -3.6238E-01
 -3.5954E-01 -2.7519E-01 -2.6588E-01 -2.5280E-01 -2.3688E-01 -2.2002E-01
 -2.0559E-01 -1.9755E-01 -1.4007E-01 -1.3991E-01 -8.2545E-02 -8.0691E-02
 -7.0542E-02 -5.2936E-02 -3.1049E-02 -9.1966E-03
  prteigrs : nnsclo,ikpt=   80   14 max resid (incl. the buffer)=  1.73727E-06
 Non-SCF case, kpt   15 (  0.00000  0.00000  0.46667), residuals and eigenvalues=
  7.09E-13  1.38E-13  7.15E-13  4.16E-13  3.92E-13  8.63E-13  2.57E-13  7.07E-13
  2.39E-13  3.51E-13  4.82E-13  6.38E-13  3.16E-13  5.88E-13  4.23E-13  2.55E-13
  2.91E-13  3.26E-13  5.73E-13  7.86E-13  3.90E-13  1.71E-13  2.49E-13  2.83E-13
  1.75E-13  6.27E-13  2.11E-13  7.66E-13  6.56E-13  8.64E-13  8.26E-13  7.14E-13
  8.09E-13  9.06E-13  3.71E-13  9.15E-13  5.83E-13  8.20E-13  6.10E-11  1.04E-07
 -7.0536E-01 -6.9576E-01 -6.8188E-01 -6.6613E-01 -6.6456E-01 -6.5783E-01
 -6.5169E-01 -6.2514E-01 -6.1824E-01 -6.0244E-01 -5.9397E-01 -5.7436E-01
 -5.6706E-01 -5.4766E-01 -5.3782E-01 -5.1190E-01 -4.6708E-01 -4.3673E-01
 -4.3421E-01 -4.0775E-01 -4.0580E-01 -3.8400E-01 -3.8171E-01 -3.6414E-01
 -3.6333E-01 -2.5546E-01 -2.4749E-01 -2.3716E-01 -2.2638E-01 -2.1825E-01
 -2.1540E-01 -2.1468E-01 -1.4113E-01 -1.4096E-01 -7.5298E-02 -7.3300E-02
 -6.5081E-02 -6.3173E-02 -5.0468E-02 -3.2229E-02
  prteigrs : nnsclo,ikpt=   80   15 max resid (incl. the buffer)=  1.04363E-07
 Non-SCF case, kpt   16 (  0.00000  0.00000  0.50000), residuals and eigenvalues=
  2.18E-13  1.89E-13  4.35E-13  4.75E-13  7.74E-13  3.78E-13  5.51E-13  4.75E-13
  1.55E-13  2.72E-13  2.58E-13  2.53E-13  4.73E-13  7.49E-13  1.92E-13  1.88E-13
  1.86E-13  8.29E-13  3.03E-13  3.29E-13  9.39E-13  1.54E-13  1.60E-13  3.29E-13
  1.76E-13  9.06E-13  8.02E-13  7.88E-13  7.89E-13  9.22E-13  6.61E-13  3.85E-13
  5.16E-13  6.95E-13  7.81E-13  6.62E-13  9.71E-13  7.27E-13  6.53E-10  1.87E-06
 -6.8614E-01 -6.8610E-01 -6.7697E-01 -6.7674E-01 -6.6450E-01 -6.6382E-01
 -6.5461E-01 -6.2802E-01 -6.1830E-01 -6.0782E-01 -5.8914E-01 -5.8342E-01
 -5.5864E-01 -5.5513E-01 -5.3112E-01 -5.2960E-01 -4.5134E-01 -4.5076E-01
 -4.2246E-01 -4.2244E-01 -3.9599E-01 -3.9343E-01 -3.7874E-01 -3.6667E-01
 -3.6334E-01 -2.3543E-01 -2.3538E-01 -2.2994E-01 -2.2985E-01 -2.2529E-01
 -2.2366E-01 -2.2205E-01 -1.4154E-01 -1.4136E-01 -7.3985E-02 -7.1488E-02
 -6.2893E-02 -5.6023E-02 -5.0017E-02 -4.1949E-02
  prteigrs : nnsclo,ikpt=   80   16 max resid (incl. the buffer)=  1.87357E-06

 SPIN DOWN channel
 Non-SCF case, kpt    1 (  0.00000  0.00000  0.00000), residuals and eigenvalues=
  7.16E-13  4.79E-13  7.94E-13  7.96E-13  5.59E-13  6.97E-13  2.40E-13  8.57E-13
  1.74E-13  3.03E-13  1.83E-13  6.58E-13  4.34E-13  9.68E-13  3.80E-13  1.87E-13
  3.82E-13  9.84E-13  6.43E-13  7.62E-13  4.11E-13  4.39E-13  1.30E-13  8.60E-13
  1.44E-13  9.74E-13  3.96E-13  4.84E-13  4.96E-13  1.51E-13  2.92E-13  8.35E-13
  5.72E-13  3.29E-13  6.15E-13  6.55E-13  5.70E-13  9.80E-13  2.56E-08  1.19E-08
 -8.4215E-01 -8.3190E-01 -8.1668E-01 -7.9625E-01 -7.7058E-01 -7.3991E-01
 -7.0505E-01 -6.7015E-01 -5.9917E-01 -5.5641E-01 -5.0784E-01 -4.5652E-01
 -4.1266E-01 -4.0434E-01 -4.0109E-01 -3.8377E-01 -3.6949E-01 -3.6072E-01
 -3.6062E-01 -3.5384E-01 -3.4759E-01 -3.3234E-01 -3.3063E-01 -3.1063E-01
 -3.0866E-01 -2.9975E-01 -2.8940E-01 -2.7362E-01 -2.6982E-01 -2.6564E-01
 -2.5587E-01 -2.5429E-01 -2.3692E-01 -6.2704E-02 -2.7131E-02 -6.4493E-03
 -3.3091E-03 -1.6867E-03  8.4888E-03  1.1933E-02
  prteigrs : nnsclo,ikpt=   80    1 max resid (incl. the buffer)=  2.56117E-08
 Non-SCF case, kpt    2 (  0.00000  0.00000  0.03333), residuals and eigenvalues=
  4.93E-13  7.62E-13  4.39E-13  2.53E-13  4.50E-13  9.12E-13  1.68E-13  7.07E-13
  3.42E-13  8.97E-13  3.21E-13  4.58E-13  1.39E-13  2.15E-13  5.11E-13  4.45E-13
  9.34E-13  8.76E-13  6.13E-13  5.29E-13  3.76E-13  8.23E-13  9.54E-13  2.50E-13
  2.53E-13  3.76E-13  3.73E-13  7.38E-13  4.29E-13  5.55E-13  7.91E-13  6.67E-13
  4.12E-13  9.43E-13  7.35E-13  6.70E-13  8.72E-13  8.92E-13  2.67E-09  1.71E-10
 -8.4143E-01 -8.3118E-01 -8.1596E-01 -7.9554E-01 -7.6988E-01 -7.3922E-01
 -7.0439E-01 -6.6952E-01 -5.9856E-01 -5.5585E-01 -5.0737E-01 -4.5619E-01
 -4.1180E-01 -4.0424E-01 -4.0023E-01 -3.8292E-01 -3.7266E-01 -3.6380E-01
 -3.5987E-01 -3.5415E-01 -3.5068E-01 -3.3350E-01 -3.3150E-01 -3.1463E-01
 -3.0815E-01 -2.9891E-01 -2.9256E-01 -2.7428E-01 -2.7273E-01 -2.6480E-01
 -2.5863E-01 -2.5548E-01 -2.3605E-01 -6.2866E-02 -2.7254E-02 -5.4921E-03
 -2.3940E-03 -7.4382E-04  9.4313E-03  1.2878E-02
  prteigrs : nnsclo,ikpt=   80    2 max resid (incl. the buffer)=  2.66926E-09
 Non-SCF case, kpt    3 (  0.00000  0.00000  0.06667), residuals and eigenvalues=
  6.64E-13  4.57E-13  4.42E-13  5.40E-13  3.77E-13  6.05E-13  2.17E-13  9.74E-13
  3.79E-13  8.20E-13  4.94E-13  3.83E-13  3.60E-13  3.40E-13  1.70E-13  2.63E-13
  3.71E-13  3.68E-13  8.05E-13  2.02E-13  5.64E-13  8.29E-13  5.91E-13  7.53E-13
  8.59E-13  7.67E-13  5.45E-13  5.12E-13  7.65E-13  3.59E-13  3.05E-13  4.99E-13
  4.52E-13  6.93E-13  5.39E-13  9.53E-13  8.60E-13  7.06E-13  2.29E-09  1.26E-05
 -8.3927E-01 -8.2903E-01 -8.1382E-01 -7.9343E-01 -7.6779E-01 -7.3718E-01
 -7.0240E-01 -6.6763E-01 -5.9675E-01 -5.5419E-01 -5.0598E-01 -4.5525E-01
 -4.0921E-01 -4.0407E-01 -3.9766E-01 -3.8180E-01 -3.8036E-01 -3.7288E-01
 -3.5951E-01 -3.5734E-01 -3.5571E-01 -3.4128E-01 -3.2899E-01 -3.2384E-01
 -3.0928E-01 -3.0132E-01 -2.9642E-01 -2.8086E-01 -2.7695E-01 -2.6621E-01
 -2.6229E-01 -2.5908E-01 -2.3348E-01 -6.3417E-02 -2.7713E-02 -2.6288E-03
  3.3701E-04  2.0795E-03  1.2256E-02  1.4993E-02
  prteigrs : nnsclo,ikpt=   80    3 max resid (incl. the buffer)=  1.25876E-05
 Non-SCF case, kpt    4 (  0.00000  0.00000  0.10000), residuals and eigenvalues=
  4.33E-13  8.81E-13  5.52E-13  6.66E-13  6.31E-13  7.11E-13  1.65E-13  3.32E-13
  7.40E-13  4.84E-13  9.15E-13  2.46E-13  2.29E-13  8.08E-13  5.97E-13  8.53E-13
  6.90E-13  2.83E-13  6.85E-13  2.40E-13  3.95E-13  5.01E-13  5.68E-13  7.90E-13
  7.67E-13  1.39E-13  1.95E-13  7.28E-13  4.49E-13  6.52E-13  4.00E-13  3.15E-13
  6.46E-13  9.14E-13  5.05E-13  9.27E-13  6.57E-13  8.74E-13  4.13E-06  1.75E-08
 -8.3569E-01 -8.2546E-01 -8.1027E-01 -7.8991E-01 -7.6432E-01 -7.3377E-01
 -6.9909E-01 -6.6447E-01 -5.9374E-01 -5.5147E-01 -5.0376E-01 -4.5386E-01
 -4.0491E-01 -4.0437E-01 -3.9595E-01 -3.9339E-01 -3.8696E-01 -3.7611E-01
 -3.7300E-01 -3.6202E-01 -3.5313E-01 -3.5012E-01 -3.3722E-01 -3.2482E-01
 -3.1397E-01 -3.1311E-01 -2.9228E-01 -2.9210E-01 -2.8460E-01 -2.7521E-01
 -2.6522E-01 -2.5812E-01 -2.2917E-01 -6.4592E-02 -2.8807E-02  2.1135E-03
  4.8410E-03  6.7675E-03  1.3566E-02  1.6948E-02
  prteigrs : nnsclo,ikpt=   80    4 max resid (incl. the buffer)=  4.13343E-06
 Non-SCF case, kpt    5 (  0.00000  0.00000  0.13333), residuals and eigenvalues=
  5.31E-13  5.27E-13  2.03E-13  9.40E-13  5.11E-13  2.56E-13  8.14E-13  8.31E-13
  2.62E-13  7.70E-13  2.82E-13  6.18E-13  8.33E-13  6.81E-13  7.19E-13  3.68E-13
  1.39E-13  1.37E-13  8.73E-13  5.72E-13  2.11E-13  7.55E-13  3.67E-13  1.66E-13
  2.22E-13  6.59E-13  4.69E-13  5.14E-13  4.03E-13  7.70E-13  1.84E-13  9.23E-13
  5.45E-13  8.62E-13  8.76E-13  6.57E-13  7.54E-13  8.27E-13  3.72E-13  8.32E-13
 -8.3068E-01 -8.2047E-01 -8.0531E-01 -7.8499E-01 -7.5946E-01 -7.2901E-01
 -6.9447E-01 -6.6006E-01 -5.8964E-01 -5.4781E-01 -5.0088E-01 -4.5244E-01
 -4.1437E-01 -4.0635E-01 -4.0469E-01 -3.9892E-01 -3.8885E-01 -3.8741E-01
 -3.7653E-01 -3.7018E-01 -3.5678E-01 -3.5311E-01 -3.4726E-01 -3.2766E-01
 -3.2273E-01 -3.1902E-01 -3.0209E-01 -2.9965E-01 -2.8652E-01 -2.8217E-01
 -2.7380E-01 -2.5232E-01 -2.2318E-01 -6.6697E-02 -3.0915E-02  8.6778E-03
  1.1043E-02  1.2100E-02  1.3305E-02  2.3500E-02
 Non-SCF case, kpt    6 (  0.00000  0.00000  0.16667), residuals and eigenvalues=
  5.10E-13  5.93E-13  2.14E-13  5.30E-13  2.66E-13  3.08E-13  5.20E-13  2.41E-13
  8.21E-13  3.87E-13  6.81E-13  2.04E-13  3.69E-13  9.24E-13  5.43E-13  8.00E-13
  9.71E-13  8.20E-13  9.81E-14  8.70E-13  1.69E-13  3.34E-13  3.14E-13  3.76E-13
  9.09E-13  7.42E-14  3.00E-13  2.86E-13  4.68E-13  4.99E-13  6.76E-13  4.71E-13
  3.34E-13  4.96E-13  8.69E-13  7.38E-13  9.03E-13  9.08E-13  9.69E-13  2.61E-13
 -8.2425E-01 -8.1406E-01 -7.9893E-01 -7.7867E-01 -7.5323E-01 -7.2291E-01
 -6.8856E-01 -6.5441E-01 -5.8457E-01 -5.4339E-01 -4.9775E-01 -4.5221E-01
 -4.3494E-01 -4.2446E-01 -4.1670E-01 -4.0200E-01 -3.9420E-01 -3.9124E-01
 -3.7976E-01 -3.6825E-01 -3.6819E-01 -3.6260E-01 -3.3977E-01 -3.3950E-01
 -3.3745E-01 -3.1859E-01 -3.1164E-01 -3.0844E-01 -2.8954E-01 -2.8457E-01
 -2.7922E-01 -2.4496E-01 -2.1555E-01 -7.0166E-02 -3.4548E-02  8.4245E-03
  1.6947E-02  1.8831E-02  2.1696E-02  3.1912E-02
 Non-SCF case, kpt    7 (  0.00000  0.00000  0.20000), residuals and eigenvalues=
  5.06E-13  3.42E-13  6.56E-13  5.65E-13  3.71E-13  1.91E-13  4.54E-13  1.86E-13
  8.79E-13  5.25E-13  2.38E-13  2.91E-13  5.87E-13  3.43E-13  3.72E-13  3.46E-13
  3.02E-13  4.91E-13  1.71E-13  1.58E-13  2.13E-13  4.57E-13  3.93E-13  5.26E-13
  5.17E-13  3.21E-13  9.64E-13  5.09E-13  2.71E-13  1.85E-13  2.03E-13  7.43E-13
  5.16E-13  4.88E-13  9.59E-13  8.46E-13  7.79E-13  9.72E-13  3.20E-11  1.59E-08
 -8.1640E-01 -8.0624E-01 -7.9116E-01 -7.7097E-01 -7.4564E-01 -7.1548E-01
 -6.8136E-01 -6.4752E-01 -5.7880E-01 -5.3867E-01 -4.9553E-01 -4.5720E-01
 -4.5682E-01 -4.4357E-01 -4.3437E-01 -4.1544E-01 -4.0999E-01 -3.8647E-01
 -3.8191E-01 -3.7732E-01 -3.7048E-01 -3.5995E-01 -3.5342E-01 -3.4248E-01
 -3.3900E-01 -3.3071E-01 -3.1382E-01 -3.0273E-01 -2.9825E-01 -2.9719E-01
 -2.7043E-01 -2.3612E-01 -2.0629E-01 -7.5472E-02 -4.0252E-02  1.8012E-03
  2.6707E-02  2.8044E-02  3.1986E-02  4.2207E-02
  prteigrs : nnsclo,ikpt=   80    7 max resid (incl. the buffer)=  1.59225E-08
 Non-SCF case, kpt    8 (  0.00000  0.00000  0.23333), residuals and eigenvalues=
  2.65E-13  2.93E-13  6.94E-13  3.29E-13  2.75E-13  3.66E-13  3.49E-13  2.23E-13
  5.63E-13  1.34E-13  1.75E-13  2.16E-13  4.54E-13  2.07E-13  4.02E-13  1.68E-13
  4.80E-13  7.12E-13  2.45E-13  2.47E-13  2.51E-13  2.00E-13  3.67E-13  5.98E-13
  4.35E-13  4.30E-13  7.70E-13  1.02E-13  1.56E-13  2.72E-13  1.85E-13  3.98E-13
  5.25E-13  5.52E-13  9.23E-13  6.42E-13  8.30E-13  7.46E-13  9.98E-13  7.17E-13
 -8.0715E-01 -7.9703E-01 -7.8201E-01 -7.6190E-01 -7.3670E-01 -7.0673E-01
 -6.7290E-01 -6.3941E-01 -5.7294E-01 -5.3490E-01 -4.9752E-01 -4.7840E-01
 -4.7209E-01 -4.6029E-01 -4.5031E-01 -4.3437E-01 -4.1862E-01 -4.0737E-01
 -3.8418E-01 -3.7761E-01 -3.7096E-01 -3.6175E-01 -3.5961E-01 -3.4408E-01
 -3.4267E-01 -3.2014E-01 -3.2006E-01 -3.1095E-01 -3.0834E-01 -2.9237E-01
 -2.6026E-01 -2.2591E-01 -1.9550E-01 -8.3060E-02 -4.8391E-02 -8.0182E-03
  3.2726E-02  3.7638E-02  3.8474E-02  4.4267E-02
 Non-SCF case, kpt    9 (  0.00000  0.00000  0.26667), residuals and eigenvalues=
  2.28E-13  5.56E-13  6.73E-13  5.96E-13  5.31E-13  9.88E-13  5.61E-13  1.79E-13
  4.54E-13  3.30E-13  1.86E-13  2.55E-13  3.65E-13  4.96E-13  5.38E-13  8.79E-13
  4.44E-13  2.07E-13  6.05E-13  2.58E-13  2.38E-13  5.18E-13  4.11E-13  2.85E-13
  6.68E-13  4.43E-13  9.24E-13  7.01E-13  4.66E-13  3.82E-13  3.55E-13  2.23E-13
  8.51E-13  8.33E-13  4.38E-13  4.47E-13  8.12E-13  5.37E-13  5.40E-13  9.43E-06
 -7.9653E-01 -7.8644E-01 -7.7149E-01 -7.5149E-01 -7.2645E-01 -6.9671E-01
 -6.6322E-01 -6.3010E-01 -5.6865E-01 -5.3560E-01 -5.0886E-01 -4.9765E-01
 -4.8836E-01 -4.7845E-01 -4.6153E-01 -4.5180E-01 -4.3300E-01 -4.1597E-01
 -4.0602E-01 -3.8420E-01 -3.7794E-01 -3.5844E-01 -3.4719E-01 -3.4613E-01
 -3.3043E-01 -3.3033E-01 -3.2284E-01 -3.1968E-01 -3.0816E-01 -2.8073E-01
 -2.4894E-01 -2.1459E-01 -1.8330E-01 -9.3150E-02 -5.9087E-02 -2.0925E-02
  1.7149E-02  4.9401E-02  4.9881E-02  5.3777E-02
  prteigrs : nnsclo,ikpt=   80    9 max resid (incl. the buffer)=  9.42547E-06
 Non-SCF case, kpt   10 (  0.00000  0.00000  0.30000), residuals and eigenvalues=
  8.68E-13  6.24E-13  7.49E-13  2.42E-13  1.46E-13  7.20E-13  3.14E-13  6.70E-13
  3.85E-13  3.33E-13  4.02E-13  4.73E-13  2.91E-13  3.81E-13  5.95E-13  7.32E-13
  4.59E-13  1.70E-13  9.32E-13  1.33E-13  3.39E-13  8.53E-13  7.29E-13  4.16E-13
  7.36E-13  5.10E-13  9.56E-14  8.78E-13  1.02E-13  2.55E-13  4.88E-13  5.74E-13
  4.48E-13  6.58E-13  6.06E-13  6.27E-13  4.27E-13  7.48E-13  6.95E-09  9.85E-09
 -7.8455E-01 -7.7450E-01 -7.5962E-01 -7.3974E-01 -7.1490E-01 -6.8547E-01
 -6.5243E-01 -6.1965E-01 -5.6993E-01 -5.4596E-01 -5.2701E-01 -5.1134E-01
 -5.0648E-01 -4.8722E-01 -4.8232E-01 -4.5599E-01 -4.5192E-01 -4.2908E-01
 -4.1269E-01 -4.0669E-01 -3.7610E-01 -3.4875E-01 -3.4595E-01 -3.4441E-01
 -3.3331E-01 -3.3178E-01 -3.3129E-01 -3.1680E-01 -2.9492E-01 -2.6800E-01
 -2.3678E-01 -2.0265E-01 -1.6997E-01 -1.0549E-01 -7.1740E-02 -3.6145E-02
 -1.1857E-03  3.2610E-02  6.1717E-02  6.2022E-02
  prteigrs : nnsclo,ikpt=   80   10 max resid (incl. the buffer)=  9.84588E-09
 Non-SCF case, kpt   11 (  0.00000  0.00000  0.33333), residuals and eigenvalues=
  7.64E-13  6.80E-13  7.53E-13  4.61E-13  1.42E-13  3.31E-13  4.02E-13  4.63E-13
  1.85E-13  2.50E-13  2.70E-13  4.34E-13  4.87E-13  2.33E-13  5.03E-13  1.67E-13
  8.43E-13  7.55E-13  8.21E-13  2.66E-13  1.66E-13  4.88E-13  5.60E-13  8.47E-13
  4.87E-13  4.31E-13  3.34E-13  8.46E-13  2.75E-13  4.95E-13  4.93E-13  3.71E-13
  3.45E-13  6.50E-13  6.66E-13  6.76E-13  8.30E-13  8.89E-13  3.49E-09  5.35E-05
 -7.7122E-01 -7.6122E-01 -7.4644E-01 -7.2671E-01 -7.0211E-01 -6.7310E-01
 -6.4077E-01 -6.0823E-01 -5.8082E-01 -5.6398E-01 -5.4831E-01 -5.2890E-01
 -5.1385E-01 -5.0529E-01 -4.8405E-01 -4.7862E-01 -4.5254E-01 -4.4510E-01
 -4.2913E-01 -4.0713E-01 -3.7395E-01 -3.6311E-01 -3.5363E-01 -3.4304E-01
 -3.3970E-01 -3.2894E-01 -3.1806E-01 -3.0193E-01 -2.8064E-01 -2.5456E-01
 -2.2442E-01 -1.9121E-01 -1.5622E-01 -1.1920E-01 -8.4941E-02 -5.2471E-02
 -2.0898E-02  1.0181E-02  4.0149E-02  6.8073E-02
  prteigrs : nnsclo,ikpt=   80   11 max resid (incl. the buffer)=  5.34647E-05
 Non-SCF case, kpt   12 (  0.00000  0.00000  0.36667), residuals and eigenvalues=
  3.82E-13  8.50E-13  3.78E-13  1.80E-13  7.37E-13  4.05E-13  1.66E-13  5.98E-13
  5.43E-13  1.42E-13  1.75E-13  2.51E-13  2.97E-13  4.52E-13  4.69E-13  1.46E-13
  4.78E-13  6.89E-13  3.31E-13  3.96E-13  2.74E-13  3.04E-13  2.88E-13  2.93E-13
  7.01E-13  1.94E-13  7.72E-13  3.52E-13  3.15E-13  7.43E-13  4.35E-13  1.51E-13
  6.05E-13  5.63E-13  6.72E-13  9.22E-13  7.59E-13  8.10E-13  3.51E-10  1.04E-06
 -7.5659E-01 -7.4665E-01 -7.3198E-01 -7.1244E-01 -6.8819E-01 -6.5988E-01
 -6.2947E-01 -5.9773E-01 -5.9735E-01 -5.8254E-01 -5.7045E-01 -5.5178E-01
 -5.2906E-01 -5.0650E-01 -5.0271E-01 -4.7479E-01 -4.7411E-01 -4.5092E-01
 -4.3682E-01 -4.0088E-01 -3.8108E-01 -3.7188E-01 -3.6411E-01 -3.5009E-01
 -3.4857E-01 -3.1215E-01 -3.0158E-01 -2.8604E-01 -2.6569E-01 -2.4107E-01
 -2.1313E-01 -1.8324E-01 -1.4429E-01 -1.3172E-01 -9.5091E-02 -6.7865E-02
 -4.0515E-02 -1.2449E-02  1.5532E-02  4.0946E-02
  prteigrs : nnsclo,ikpt=   80   12 max resid (incl. the buffer)=  1.03853E-06
 Non-SCF case, kpt   13 (  0.00000  0.00000  0.40000), residuals and eigenvalues=
  8.65E-13  4.53E-13  1.43E-13  1.65E-13  2.21E-13  3.68E-13  1.92E-13  5.18E-13
  2.88E-13  3.27E-13  1.56E-13  1.21E-13  2.25E-13  4.81E-13  4.88E-13  1.76E-13
  4.20E-13  3.87E-13  1.77E-13  3.33E-13  7.38E-13  2.30E-13  7.76E-13  9.25E-13
  4.32E-13  5.46E-13  2.70E-13  7.94E-13  8.74E-13  5.99E-13  2.25E-13  4.52E-13
  2.26E-13  2.94E-13  3.74E-13  3.18E-13  5.23E-13  4.20E-13  2.45E-10  3.47E-07
 -7.4070E-01 -7.3083E-01 -7.1631E-01 -6.9706E-01 -6.7341E-01 -6.4700E-01
 -6.2865E-01 -6.0741E-01 -6.0606E-01 -5.9083E-01 -5.7983E-01 -5.7316E-01
 -5.5150E-01 -5.2501E-01 -4.9722E-01 -4.9489E-01 -4.7217E-01 -4.6285E-01
 -4.2710E-01 -3.9897E-01 -3.9431E-01 -3.7793E-01 -3.7132E-01 -3.5714E-01
 -3.5485E-01 -2.9417E-01 -2.8408E-01 -2.6946E-01 -2.5070E-01 -2.2877E-01
 -2.0554E-01 -1.8483E-01 -1.3912E-01 -1.3838E-01 -9.4901E-02 -7.8879E-02
 -5.8108E-02 -3.4047E-02 -8.5109E-03  1.5410E-02
  prteigrs : nnsclo,ikpt=   80   13 max resid (incl. the buffer)=  3.46767E-07
 Non-SCF case, kpt   14 (  0.00000  0.00000  0.43333), residuals and eigenvalues=
  7.52E-13  2.87E-13  1.74E-13  5.80E-13  3.75E-13  7.77E-13  2.48E-13  7.93E-13
  8.51E-13  9.20E-13  3.27E-13  3.43E-13  2.60E-13  5.42E-13  1.05E-13  6.90E-13
  9.62E-13  3.44E-13  2.87E-13  6.30E-13  4.24E-13  4.33E-13  3.53E-13  4.10E-13
  1.32E-13  4.87E-13  6.30E-13  3.24E-13  9.73E-13  1.90E-13  5.87E-13  4.24E-13
  5.21E-13  9.72E-13  5.52E-13  8.34E-13  4.77E-13  5.44E-13  8.29E-10  1.74E-06
 -7.2359E-01 -7.1383E-01 -6.9952E-01 -6.8078E-01 -6.5880E-01 -6.4594E-01
 -6.4298E-01 -6.1701E-01 -6.1499E-01 -5.9543E-01 -5.9061E-01 -5.7285E-01
 -5.6400E-01 -5.4643E-01 -5.1778E-01 -4.9247E-01 -4.8199E-01 -4.5031E-01
 -4.1679E-01 -4.1664E-01 -3.9306E-01 -3.8737E-01 -3.7506E-01 -3.6238E-01
 -3.5954E-01 -2.7519E-01 -2.6587E-01 -2.5280E-01 -2.3688E-01 -2.2002E-01
 -2.0559E-01 -1.9755E-01 -1.4002E-01 -1.3994E-01 -8.2545E-02 -8.0691E-02
 -7.0541E-02 -5.2935E-02 -3.1047E-02 -9.1947E-03
  prteigrs : nnsclo,ikpt=   80   14 max resid (incl. the buffer)=  1.73594E-06
 Non-SCF case, kpt   15 (  0.00000  0.00000  0.46667), residuals and eigenvalues=
  7.09E-13  1.38E-13  7.15E-13  4.17E-13  3.92E-13  8.63E-13  2.57E-13  7.04E-13
  2.39E-13  3.51E-13  4.82E-13  6.38E-13  3.16E-13  5.88E-13  4.23E-13  2.55E-13
  2.91E-13  3.27E-13  5.73E-13  7.86E-13  3.90E-13  1.70E-13  2.48E-13  2.79E-13
  1.82E-13  6.25E-13  2.11E-13  7.65E-13  6.56E-13  8.64E-13  8.26E-13  7.13E-13
  3.51E-13  9.16E-13  3.70E-13  9.14E-13  5.83E-13  8.22E-13  6.11E-11  1.04E-07
 -7.0536E-01 -6.9576E-01 -6.8187E-01 -6.6613E-01 -6.6455E-01 -6.5783E-01
 -6.5169E-01 -6.2513E-01 -6.1823E-01 -6.0244E-01 -5.9397E-01 -5.7436E-01
 -5.6706E-01 -5.4766E-01 -5.3782E-01 -5.1190E-01 -4.6708E-01 -4.3673E-01
 -4.3421E-01 -4.0775E-01 -4.0580E-01 -3.8400E-01 -3.8171E-01 -3.6414E-01
 -3.6332E-01 -2.5546E-01 -2.4749E-01 -2.3716E-01 -2.2638E-01 -2.1825E-01
 -2.1540E-01 -2.1468E-01 -1.4107E-01 -1.4098E-01 -7.5298E-02 -7.3300E-02
 -6.5080E-02 -6.3173E-02 -5.0467E-02 -3.2228E-02
  prteigrs : nnsclo,ikpt=   80   15 max resid (incl. the buffer)=  1.04392E-07
 Non-SCF case, kpt   16 (  0.00000  0.00000  0.50000), residuals and eigenvalues=
  2.18E-13  1.90E-13  4.35E-13  4.75E-13  7.75E-13  3.79E-13  5.45E-13  4.75E-13
  1.55E-13  2.73E-13  2.57E-13  2.53E-13  4.74E-13  7.50E-13  1.92E-13  1.88E-13
  1.86E-13  8.33E-13  3.00E-13  3.28E-13  9.39E-13  1.54E-13  1.60E-13  2.71E-13
  1.76E-13  9.05E-13  8.02E-13  7.85E-13  7.88E-13  9.15E-13  6.58E-13  3.89E-13
  9.14E-13  5.30E-13  7.80E-13  6.65E-13  9.71E-13  7.21E-13  6.57E-10  1.87E-06
 -6.8614E-01 -6.8610E-01 -6.7697E-01 -6.7674E-01 -6.6450E-01 -6.6382E-01
 -6.5461E-01 -6.2802E-01 -6.1829E-01 -6.0782E-01 -5.8914E-01 -5.8342E-01
 -5.5863E-01 -5.5512E-01 -5.3112E-01 -5.2960E-01 -4.5134E-01 -4.5076E-01
 -4.2246E-01 -4.2244E-01 -3.9599E-01 -3.9343E-01 -3.7874E-01 -3.6667E-01
 -3.6334E-01 -2.3543E-01 -2.3538E-01 -2.2994E-01 -2.2985E-01 -2.2529E-01
 -2.2366E-01 -2.2205E-01 -1.4148E-01 -1.4138E-01 -7.3985E-02 -7.1487E-02
 -6.2891E-02 -5.6022E-02 -5.0015E-02 -4.1949E-02
  prteigrs : nnsclo,ikpt=   80   16 max resid (incl. the buffer)=  1.87291E-06

 Integrated electronic and magnetization densities in atomic spheres:
 ---------------------------------------------------------------------
 Note: Diff(up-dn) is a rough approximation of local magnetic moment
 Atom    Radius    up_density   dn_density  Total(up+dn)  Diff(up-dn)
    1   0.89889     0.219584     0.219589      0.439173    -0.000005
    2   1.50737     1.349484     1.348987      2.698471     0.000497
    3   1.50737     1.372315     1.372399      2.744714    -0.000085
    4   1.50737     1.373774     1.373648      2.747421     0.000126
    5   1.50737     1.376348     1.376386      2.752733    -0.000038
    6   1.50737     1.365660     1.365613      2.731274     0.000047
    7   1.50737     1.362170     1.362185      2.724355    -0.000016
    8   1.50737     1.369178     1.369154      2.738332     0.000025
    9   1.50737     1.371703     1.371715      2.743418    -0.000012
   10   1.50737     1.374246     1.374235      2.748481     0.000012
   11   1.50737     1.372142     1.372163      2.744305    -0.000020
   12   1.50737     1.362183     1.362175      2.724359     0.000008
   13   1.50737     1.365617     1.365649      2.731266    -0.000031
[...]
                       1.000000  1.000000  1.000000  1.000000  1.000000  1.000000
                       1.000000  1.000000  0.742130  0.129574  0.000000  0.000000
                       0.000000  0.000000  0.000000  0.000000  0.000000  0.000000
                       1.000000  1.000000  1.000000  1.000000  1.000000  1.000000
                       1.000000  1.000000  1.000000  1.000000  1.000000  1.000000
                       1.000000  1.000000  1.000000  1.000000  1.000000  1.000000
                       1.000000  1.000000  1.000000  1.000000  1.000000  1.000000
                       1.000000  1.000000  1.000000  1.000000  1.000000  1.000000
                       1.000000  1.000000  0.518072  0.514718  0.000000  0.000000
                       0.000000  0.000000  0.000000  0.000000  0.000000  0.000000
                       1.000000  1.000000  1.000000  1.000000  1.000000  1.000000
                       1.000000  1.000000  1.000000  1.000000  1.000000  1.000000
                       1.000000  1.000000  1.000000  1.000000  1.000000  1.000000
                       1.000000  1.000000  1.000000  1.000000  1.000000  1.000000
                       1.000000  1.000000  1.000000  1.000000  1.000000  1.000000
                       1.000000  1.000000  0.599855  0.595289  0.000000  0.000000
                       0.000000  0.000000  0.000000  0.000000  0.000000  0.000000
                       1.000000  1.000000  1.000000  1.000000  1.000000  1.000000
                       1.000000  1.000000  1.000000  1.000000  1.000000  1.000000
                       1.000000  1.000000  1.000000  1.000000  1.000000  1.000000
                       1.000000  1.000000  1.000000  1.000000  1.000000  1.000000
                       1.000000  1.000000  1.000000  1.000000  1.000000  1.000000
                       1.000000  1.000000  1.000000  0.000000  0.000000  0.000000
                       0.000000  0.000000  0.000000  0.000000  0.000000  0.000000
                       1.000000  1.000000  1.000000  1.000000  1.000000  1.000000
                       1.000000  1.000000  1.000000  1.000000  1.000000  1.000000
                       1.000000  1.000000  1.000000  1.000000  1.000000  1.000000
                       1.000000  1.000000  1.000000  1.000000  1.000000  1.000000
                       1.000000  1.000000  1.000000  1.000000  1.000000  1.000000
                       1.000000  1.000000  1.000000  0.000000  0.000000  0.000000
                       0.000000  0.000000  0.000000  0.000000  0.000000  0.000000
                       1.000000  1.000000  1.000000  1.000000  1.000000  1.000000
                       1.000000  1.000000  1.000000  1.000000  1.000000  1.000000
                       1.000000  1.000000  1.000000  1.000000  1.000000  1.000000
                       1.000000  1.000000  1.000000  1.000000  1.000000  1.000000
                       1.000000  1.000000  1.000000  1.000000  1.000000  1.000000
                       1.000000  1.000000  1.000000  0.000000  0.000000  0.000000
                       0.000000  0.000000  0.000000  0.000000  0.000000  0.000000
                       1.000000  1.000000  1.000000  1.000000  1.000000  1.000000
                       1.000000  1.000000  1.000000  1.000000  1.000000  1.000000
                       1.000000  1.000000  1.000000  1.000000  1.000000  1.000000
                       1.000000  1.000000  1.000000  1.000000  1.000000  1.000000
                       1.000000  1.000000  1.000000  1.000000  1.000000  1.000000
                       1.000000  1.000000  1.000000  0.000000  0.000000  0.000000
                       0.000000  0.000000  0.000000  0.000000  0.000000  0.000000
                       1.000000  1.000000  1.000000  1.000000  1.000000  1.000000
                       1.000000  1.000000  1.000000  1.000000  1.000000  1.000000
                       1.000000  1.000000  1.000000  1.000000  1.000000  1.000000
                       1.000000  1.000000  1.000000  1.000000  1.000000  1.000000
                       1.000000  1.000000  1.000000  1.000000  1.000000  1.000000
                       1.000000  1.000000  0.999991  0.000001  0.000000  0.000000
                       0.000000  0.000000  0.000000  0.000000  0.000000  0.000000
                       1.000000  1.000000  1.000000  1.000000  1.000000  1.000000
                       1.000000  1.000000  1.000000  1.000000  1.000000  1.000000
                       1.000000  1.000000  1.000000  1.000000  1.000000  1.000000
                       1.000000  1.000000  1.000000  1.000000  1.000000  1.000000
                       1.000000  1.000000  1.000000  1.000000  1.000000  1.000000
                       1.000000  1.000000  0.741696  0.129301  0.000000  0.000000
                       0.000000  0.000000  0.000000  0.000000  0.000000  0.000000
                       1.000000  1.000000  1.000000  1.000000  1.000000  1.000000
                       1.000000  1.000000  1.000000  1.000000  1.000000  1.000000
                       1.000000  1.000000  1.000000  1.000000  1.000000  1.000000
                       1.000000  1.000000  1.000000  1.000000  1.000000  1.000000
                       1.000000  1.000000  1.000000  1.000000  1.000000  1.000000
                       1.000000  1.000000  0.517153  0.513466  0.000000  0.000000
                       0.000000  0.000000  0.000000  0.000000  0.000000  0.000000
                       1.000000  1.000000  1.000000  1.000000  1.000000  1.000000
                       1.000000  1.000000  1.000000  1.000000  1.000000  1.000000
                       1.000000  1.000000  1.000000  1.000000  1.000000  1.000000
                       1.000000  1.000000  1.000000  1.000000  1.000000  1.000000
                       1.000000  1.000000  1.000000  1.000000  1.000000  1.000000
                       1.000000  1.000000  0.598796  0.593876  0.000000  0.000000
                       0.000000  0.000000  0.000000  0.000000  0.000000  0.000000
           occopt           7
        pawecutdg      4.00000000E+01 Hartree
          pawovlp      1.0000000000E+01
           shiftk1     0.00000000E+00  0.00000000E+00  5.00000000E-01
           shiftk2     5.00000000E-01  5.00000000E-01  5.00000000E-01
          spgroup           1
           spinat      0.0000000000E+00  0.0000000000E+00  1.0000000000E+00
                       0.0000000000E+00  0.0000000000E+00  0.0000000000E+00
                       0.0000000000E+00  0.0000000000E+00  0.0000000000E+00
                       0.0000000000E+00  0.0000000000E+00  0.0000000000E+00
                       0.0000000000E+00  0.0000000000E+00  0.0000000000E+00
                       0.0000000000E+00  0.0000000000E+00  0.0000000000E+00
                       0.0000000000E+00  0.0000000000E+00  0.0000000000E+00
                       0.0000000000E+00  0.0000000000E+00  0.0000000000E+00
                       0.0000000000E+00  0.0000000000E+00  0.0000000000E+00
                       0.0000000000E+00  0.0000000000E+00  0.0000000000E+00
                       0.0000000000E+00  0.0000000000E+00  0.0000000000E+00
                       0.0000000000E+00  0.0000000000E+00  0.0000000000E+00
                       0.0000000000E+00  0.0000000000E+00  0.0000000000E+00
                       0.0000000000E+00  0.0000000000E+00  0.0000000000E+00
                       0.0000000000E+00  0.0000000000E+00  0.0000000000E+00
                       0.0000000000E+00  0.0000000000E+00  0.0000000000E+00
                       0.0000000000E+00  0.0000000000E+00  0.0000000000E+00
                       0.0000000000E+00  0.0000000000E+00 -1.0000000000E+00
           strten1     1.9267690846E-06  5.5509739138E-05  6.5070131664E-05
                       3.8122994125E-10 -7.3979364895E-12  7.9478186517E-11
           toldfe1     1.00000000E-06 Hartree
           toldfe2     0.00000000E+00 Hartree
           tolwfr1     0.00000000E+00
           tolwfr2     1.00000000E-12
            typat      2  1  1  1  1  1  1  1  1  1  1  1  1  1  1  1  1  2
           useylm           1
              wtk1       0.13333    0.13333    0.13333    0.13333    0.13333    0.13333
                         0.13333    0.06667
              wtk2       1.00000    1.00000    1.00000    1.00000    1.00000    1.00000
                         1.00000    1.00000    1.00000    1.00000    1.00000    1.00000
                         1.00000    1.00000    1.00000    1.00000
           xangst      2.1924687653E-06 -8.9347127982E+00  1.2253261414E+00
                      -6.3335522880E-06 -7.8374663590E+00  1.2252914015E+00
                      -1.2466279888E-05 -7.1553103483E+00 -9.0703680259E-03
                      -2.4889138031E-05 -5.7095725410E+00 -9.0145181006E-03
                      -3.0871693702E-05 -5.0013301057E+00  1.2253608862E+00
                      -4.2554247256E-05 -3.5682760068E+00  1.2253671991E+00
                      -4.7331677516E-05 -2.8569447694E+00 -8.9956653736E-03
                      -5.1814279312E-05 -1.4267271463E+00 -8.9761860125E-03
                      -5.0440741501E-05 -7.1470430595E-01  1.2253949192E+00
                      -3.9645629859E-05  7.1487653105E-01  1.2253974953E+00
                      -3.1339882842E-05  1.4268988477E+00 -8.9725857920E-03
                      -1.2927341998E-05  2.8571142755E+00 -8.9900137798E-03
                      -3.8630326290E-06  3.5684443157E+00  1.2253733133E+00
                       1.1398425826E-05  5.0014956819E+00  1.2253679131E+00
                       1.7259567710E-05  5.7097392667E+00 -9.0075717678E-03
                       2.3882826847E-05  7.1554797931E+00 -9.0650236494E-03
                       2.4511032039E-05  7.8376359584E+00  1.2252964978E+00
                       2.2583175635E-05  8.9348828407E+00  1.2253293079E+00
            xcart      4.1431655213E-06 -1.6884160265E+01  2.3155308307E+00
                      -1.1968679273E-05 -1.4810664994E+01  2.3154651818E+00
                      -2.3557854884E-05 -1.3521576954E+01 -1.7140511493E-02
                      -4.7033654562E-05 -1.0789528438E+01 -1.7034970430E-02
                      -5.8339046355E-05 -9.4511441999E+00  2.3155964889E+00
                      -8.0415873105E-05 -6.7430644194E+00  2.3156084185E+00
                      -8.9443907915E-05 -5.3988431909E+00 -1.6999343939E-02
                      -9.7914797673E-05 -2.6961235729E+00 -1.6962533281E-02
                      -9.5319187377E-05 -1.3505954042E+00  2.3156608019E+00
                      -7.4919382799E-05  1.3509208625E+00  2.3156656700E+00
                      -5.9223795608E-05  2.6964480415E+00 -1.6955729851E-02
                      -2.4429136002E-05  5.3991635111E+00 -1.6988663975E-02
                      -7.3000737112E-06  6.7433824771E+00  2.3156199727E+00
                       2.1539903157E-05  9.4514570936E+00  2.3156097678E+00
                       3.2615856144E-05  1.0789843504E+01 -1.7021843763E-02
                       4.5132002020E-05  1.3521897158E+01 -1.7130412085E-02
                       4.6319137788E-05  1.4810985491E+01  2.3154748124E+00
                       4.2676017161E-05  1.6884481598E+01  2.3155368145E+00
             xred      1.4616458439E-07 -2.5527750852E-01  4.9634001573E-01
                      -4.2223681918E-07 -2.2392761026E-01  4.9632594372E-01
                      -8.3108532585E-07 -2.0443743852E-01 -3.6741129211E-03
                      -1.6592758687E-06 -1.6313064403E-01 -3.6514899215E-03
                      -2.0581129135E-06 -1.4289514588E-01  4.9635408973E-01
                      -2.8369498171E-06 -1.0195074305E-01  4.9635664688E-01
                      -3.1554451678E-06 -8.1626993411E-02 -3.6438532911E-03
                      -3.4542852875E-06 -4.0763632751E-02 -3.6359628316E-03
                      -3.3627161001E-06 -2.0420123027E-02  4.9636787540E-01
                      -2.6430419906E-06  2.0425043744E-02  4.9636891889E-01
                      -2.0893255228E-06  4.0768538506E-02 -3.6345044986E-03
                      -8.6182279989E-07  8.1631836443E-02 -3.6415640132E-03
                      -2.5753550862E-07  1.0195555188E-01  4.9635912355E-01
                       7.5989505505E-07  1.4289987663E-01  4.9635693610E-01
                       1.1506378473E-06  1.6313540762E-01 -3.6486761866E-03
                       1.5921884565E-06  2.0444227980E-01 -3.6719480869E-03
                       1.6340688026E-06  2.2393245595E-01  4.9632800807E-01
                       1.5055450423E-06  2.5528236688E-01  4.9634129838E-01
            znucl        6.00000    1.00000

================================================================================

- Total cpu        time (s,m,h):       6579.9      109.67      1.828
- Total wall clock time (s,m,h):       3722.8       62.05      1.034
-
- For major independent code sections, cpu and wall times (sec),
-  as well as % of the time and number of calls for node 0-
-<BEGIN_TIMER mpi_nprocs = 1, omp_nthreads = 1, mpi_rank = 0>
- cpu_time =         6579.9, wall_time =         3722.8
-
- routine                        cpu     %       wall     %      number of calls  Gflops    Speedup Efficacity
-                                                                  (-1=no count)
- vtowfk(ssdiag)              3077.498  46.8    225.169   6.0             -1      -1.00       13.67      13.67
- nonlop(apply)               2161.726  32.9   2159.865  58.0         147864      -1.00        1.00       1.00
- fourwf%(pot)                 564.712   8.6    564.048  15.2         147864      -1.00        1.00       1.00
- projbd                       453.487   6.9    453.260  12.2         101144      -1.00        1.00       1.00
- vtowfk(contrib)               89.372   1.4     89.286   2.4            400      -1.00        1.00       1.00
- others (108)                  85.860   1.3     83.897   2.3             -1      -1.00        1.02       1.02
-<END_TIMER>
-
- subtotal                    6432.655  97.8   3575.525  96.0                                  1.80       1.80

- For major independent code sections, cpu and wall times (sec),
- as well as % of the total time and number of calls 

-<BEGIN_TIMER mpi_nprocs = 1, omp_nthreads = 1, mpi_rank = world>
- cpu_time =        6579.9, wall_time =        3722.8
-
- routine                         cpu     %       wall     %      number of calls Gflops    Speedup Efficacity
-                                                                  (-1=no count)
- vtowfk(ssdiag)              3077.498  46.8    225.169   6.0             -1      -1.00       13.67      13.67
- nonlop(apply)               2161.726  32.9   2159.865  58.0         147864      -1.00        1.00       1.00
- fourwf%(pot)                 564.712   8.6    564.048  15.2         147864      -1.00        1.00       1.00
- projbd                       453.487   6.9    453.260  12.2         101144      -1.00        1.00       1.00
- vtowfk(contrib)               89.372   1.4     89.286   2.4            400      -1.00        1.00       1.00
- others (108)                  85.860   1.3     83.897   2.3             -1      -1.00        1.02       1.02
-<END_TIMER>

- subtotal                    6432.655  97.8   3575.525  96.0                                  1.80       1.80

================================================================================

 Suggested references for the acknowledgment of ABINIT usage.

 The users of ABINIT have little formal obligations with respect to the ABINIT group
 (those specified in the GNU General Public License, http://www.gnu.org/copyleft/gpl.txt).
 However, it is common practice in the scientific literature,
 to acknowledge the efforts of people that have made the research possible.
 In this spirit, please find below suggested citations of work written by ABINIT developers,
 corresponding to implementations inside of ABINIT that you have used in the present run.
 Note also that it will be of great value to readers of publications presenting these results,
 to read papers enabling them to understand the theoretical formalism and details
 of the ABINIT implementation.
 For information on why they are suggested, see also http://www.abinit.org/about/?text=acknowledgments.
-
- [1] Implementation of the Projector Augmented-Wave Method in the ABINIT code.
- M. Torrent, F. Jollet, F. Bottin, G. Zerah, and X. Gonze Comput. Mat. Science 42, 337, (2008).
- Comment : PAW calculations. Strong suggestion to cite this paper.
-
- [2] Recent developments in the ABINIT software package.
- Computer Phys. Comm. 205, 106 (2016).
- X.Gonze, F.Jollet, F.Abreu Araujo, D.Adams, B.Amadon, T.Applencourt,
- C.Audouze, J.-M.Beuken, J.Bieder, A.Bokhanchuk, E.Bousquet, F.Bruneval
- D.Caliste, M.Cote, F.Dahm, F.Da Pieve, M.Delaveau, M.Di Gennaro,
- B.Dorado, C.Espejo, G.Geneste, L.Genovese, A.Gerossier, M.Giantomassi,
- Y.Gillet, D.R.Hamann, L.He, G.Jomard, J.Laflamme Janssen, S.Le Roux,
- A.Levitt, A.Lherbier, F.Liu, I.Lukacevic, A.Martin, C.Martins,
- M.J.T.Oliveira, S.Ponce, Y.Pouillon, T.Rangel, G.-M.Rignanese,
- A.H.Romero, B.Rousseau, O.Rubel, A.A.Shukri, M.Stankovski, M.Torrent,
- M.J.Van Setten, B.Van Troeye, M.J.Verstraete, D.Waroquier, J.Wiktor,
- B.Xue, A.Zhou, J.W.Zwanziger.
- Comment : the fourth generic paper describing the ABINIT project.
- Note that a version of this paper, that is not formatted for Computer Phys. Comm. 
- is available at http://www.abinit.org/about/ABINIT16.pdf .
- The licence allows the authors to put it on the Web.
-
- [3] ABINIT : First-principles approach of materials and nanosystem properties.
- Computer Phys. Comm. 180, 2582-2615 (2009).
- X. Gonze, B. Amadon, P.-M. Anglade, J.-M. Beuken, F. Bottin, P. Boulanger, F. Bruneval,
- D. Caliste, R. Caracas, M. Cote, T. Deutsch, L. Genovese, Ph. Ghosez, M. Giantomassi
- S. Goedecker, D.R. Hamann, P. Hermet, F. Jollet, G. Jomard, S. Leroux, M. Mancini, S. Mazevet,
- M.J.T. Oliveira, G. Onida, Y. Pouillon, T. Rangel, G.-M. Rignanese, D. Sangalli, R. Shaltaf,
- M. Torrent, M.J. Verstraete, G. Zerah, J.W. Zwanziger
- Comment : the third generic paper describing the ABINIT project.
- Note that a version of this paper, that is not formatted for Computer Phys. Comm. 
- is available at http://www.abinit.org/about/ABINIT_CPC_v10.pdf .
- The licence allows the authors to put it on the Web.
-
- [4] A brief introduction to the ABINIT software package.
- Z. Kristallogr. 220, 558-562 (2005).
- X. Gonze, G.-M. Rignanese, M. Verstraete, J.-M. Beuken, Y. Pouillon, R. Caracas, F. Jollet,
- M. Torrent, G. Zerah, M. Mikami, Ph. Ghosez, M. Veithen, J.-Y. Raty, V. Olevano, F. Bruneval,
- L. Reining, R. Godby, G. Onida, D.R. Hamann, and D.C. Allan.
- Comment : the second generic paper describing the ABINIT project. Note that this paper
- should be cited especially if you are using the GW part of ABINIT, as several authors
- of this part are not in the list of authors of the first or third paper.
- The .pdf of the latter paper is available at http://www.abinit.org/about/zfk_0505-06_558-562.pdf.
- Note that it should not redistributed (Copyright by Oldenburg Wissenshaftverlag,
- the licence allows the authors to put it on the Web).
-
- And optionally:
-
- [5] First-principles computation of material properties : the ABINIT software project. 
- X. Gonze, J.-M. Beuken, R. Caracas, F. Detraux, M. Fuchs, G.-M. Rignanese, L. Sindic,
- M. Verstraete, G. Zerah, F. Jollet, M. Torrent, A. Roy, M. Mikami, Ph. Ghosez, J.-Y. Raty, D.C. Allan.
- Computational Materials Science 25, 478-492 (2002). http://dx.doi.org/10.1016/S0927-0256(02)00325-7
- Comment : the original paper describing the ABINIT project.
-
- Proc.   0 individual time (sec): cpu=       6579.9  wall=       3722.8

================================================================================

 Calculation completed.
.Delivered  36 WARNINGs and   4 COMMENTs to log file.
+Overall time at end (sec) : cpu=       6579.9  wall=       3722.8
