
.Version 8.4.1 of ABINIT 
.(sequential version, prepared for a x86_64_linux_gnu7.0 computer) 

.Copyright (C) 1998-2017 ABINIT group . 
 ABINIT comes with ABSOLUTELY NO WARRANTY.
 It is free software, and you are welcome to redistribute it
 under certain conditions (GNU General Public License,
 see ~abinit/COPYING or http://www.gnu.org/copyleft/gpl.txt).

 ABINIT is a project of the Universite Catholique de Louvain,
 Corning Inc. and other collaborators, see ~abinit/doc/developers/contributors.txt .
 Please read ~abinit/doc/users/acknowledgments.html for suggested
 acknowledgments of the ABINIT effort.
 For more information, see http://www.abinit.org .

.Starting date : Mon 14 Aug 2017.
- ( at 12h56 )
  
- input  file    -> agnr_template.in
- output file    -> agnr_template.out
- root for input  files -> agnr_templatei
- root for output files -> agnr_templateo


 Symmetries : space group P1 (#  1); Bravais aP (primitive triclinic)
================================================================================
 Values of the parameters that define the memory need of the present run
     intxc =       0    ionmov =       2      iscf =      17    lmnmax =       8
     lnmax =       4     mgfft =     270  mpssoang =       2    mqgrid =   21656
     natom =      38  nloc_mem =       2    nspden =       2   nspinor =       1
    nsppol =       2      nsym =       1    n1xccc =       1    ntypat =       2
    occopt =       7   xclevel =       2
-    mband =          89        mffmem =           1         mkmem =          11
       mpw =       58406          nfft =     1036800          nkpt =          11
 PAW method is used; the additional fine FFT grid is defined by:
   mgfftf=       450    nfftf =   4665600
================================================================================
P This job should need less than                    3810.769 Mbytes of memory.
  Rough estimation (10% accuracy) of disk space for files :
_ WF disk file :   1744.981 Mbytes ; DEN or POT disk file :     71.193 Mbytes.
================================================================================

--------------------------------------------------------------------------------
------------- Echo of variables that govern the present computation ------------
--------------------------------------------------------------------------------
-
- outvars: echo of selected default values                                      
-   iomode0 =  0 , fftalg0 =112 , wfoptalg0 = 10
-
- outvars: echo of global parameters not present in the input file              
-  max_nthreads =    0
-
 -outvars: echo values of preprocessed input variables --------
            acell      2.8345891993E+01  6.6140414651E+01  8.1735776405E+00 Bohr
              amu      1.20110000E+01  1.00794000E+00
           diemac      1.00000000E+01
          dilatmx      1.15000000E+00
             ecut      1.40000000E+01 Hartree
           ecutsm      5.00000000E-01 Hartree
-          fftalg         112
           ionmov           2
           istwfk        2    0    0    0    0    0    0    0    0    0
                         4
              ixc          11
              kpt      0.00000000E+00  0.00000000E+00  0.00000000E+00
                       0.00000000E+00  0.00000000E+00  5.00000000E-02
                       0.00000000E+00  0.00000000E+00  1.00000000E-01
                       0.00000000E+00  0.00000000E+00  1.50000000E-01
                       0.00000000E+00  0.00000000E+00  2.00000000E-01
                       0.00000000E+00  0.00000000E+00  2.50000000E-01
                       0.00000000E+00  0.00000000E+00  3.00000000E-01
                       0.00000000E+00  0.00000000E+00  3.50000000E-01
                       0.00000000E+00  0.00000000E+00  4.00000000E-01
                       0.00000000E+00  0.00000000E+00  4.50000000E-01
                       0.00000000E+00  0.00000000E+00  5.00000000E-01
         kptrlatt        1    0    0      0    1    0      0    0   20
          kptrlen      1.63471553E+02
P           mkmem          11
            natom          38
            nband          89
            ngfft         120     270      32
          ngfftdg         192     450      54
             nkpt          11
           nspden           2
           nsppol           2
            nstep          80
             nsym           1
            ntime          80
           ntypat           2
              occ      1.000000  1.000000  1.000000  1.000000  1.000000  1.000000
                       1.000000  1.000000  1.000000  1.000000  1.000000  1.000000
                       1.000000  1.000000  1.000000  1.000000  1.000000  1.000000
                       1.000000  1.000000  1.000000  1.000000  1.000000  1.000000
                       1.000000  1.000000  1.000000  1.000000  1.000000  1.000000
                       1.000000  1.000000  1.000000  1.000000  1.000000  1.000000
                       1.000000  1.000000  1.000000  1.000000  1.000000  1.000000
                       1.000000  1.000000  1.000000  1.000000  1.000000  1.000000
                       1.000000  1.000000  1.000000  1.000000  1.000000  1.000000
                       1.000000  1.000000  1.000000  1.000000  1.000000  1.000000
                       1.000000  1.000000  1.000000  1.000000  1.000000  1.000000
                       1.000000  1.000000  1.000000  1.000000  0.000000  0.000000
                       0.000000  0.000000  0.000000  0.000000  0.000000  0.000000
                       0.000000  0.000000  0.000000  0.000000  0.000000  0.000000
                       0.000000  0.000000  0.000000  0.000000  0.000000
                       1.000000  1.000000  1.000000  1.000000  1.000000  1.000000
                       1.000000  1.000000  1.000000  1.000000  1.000000  1.000000
                       1.000000  1.000000  1.000000  1.000000  1.000000  1.000000
                       1.000000  1.000000  1.000000  1.000000  1.000000  1.000000
                       1.000000  1.000000  1.000000  1.000000  1.000000  1.000000
                       1.000000  1.000000  1.000000  1.000000  1.000000  1.000000
                       1.000000  1.000000  1.000000  1.000000  1.000000  1.000000
                       1.000000  1.000000  1.000000  1.000000  1.000000  1.000000
                       1.000000  1.000000  1.000000  1.000000  1.000000  1.000000
                       1.000000  1.000000  1.000000  1.000000  1.000000  1.000000
                       1.000000  1.000000  1.000000  1.000000  1.000000  1.000000
                       1.000000  1.000000  1.000000  1.000000  0.000000  0.000000
                       0.000000  0.000000  0.000000  0.000000  0.000000  0.000000
                       0.000000  0.000000  0.000000  0.000000  0.000000  0.000000
                       0.000000  0.000000  0.000000  0.000000  0.000000
                       1.000000  1.000000  1.000000  1.000000  1.000000  1.000000
                       1.000000  1.000000  1.000000  1.000000  1.000000  1.000000
                       1.000000  1.000000  1.000000  1.000000  1.000000  1.000000
                       1.000000  1.000000  1.000000  1.000000  1.000000  1.000000
                       1.000000  1.000000  1.000000  1.000000  1.000000  1.000000
                       1.000000  1.000000  1.000000  1.000000  1.000000  1.000000
                       1.000000  1.000000  1.000000  1.000000  1.000000  1.000000
                       1.000000  1.000000  1.000000  1.000000  1.000000  1.000000
                       1.000000  1.000000  1.000000  1.000000  1.000000  1.000000
                       1.000000  1.000000  1.000000  1.000000  1.000000  1.000000
                       1.000000  1.000000  1.000000  1.000000  1.000000  1.000000
                       1.000000  1.000000  1.000000  1.000000  0.000000  0.000000
                       0.000000  0.000000  0.000000  0.000000  0.000000  0.000000
                       0.000000  0.000000  0.000000  0.000000  0.000000  0.000000
                       0.000000  0.000000  0.000000  0.000000  0.000000
                       1.000000  1.000000  1.000000  1.000000  1.000000  1.000000
                       1.000000  1.000000  1.000000  1.000000  1.000000  1.000000
                       1.000000  1.000000  1.000000  1.000000  1.000000  1.000000
                       1.000000  1.000000  1.000000  1.000000  1.000000  1.000000
                       1.000000  1.000000  1.000000  1.000000  1.000000  1.000000
                       1.000000  1.000000  1.000000  1.000000  1.000000  1.000000
                       1.000000  1.000000  1.000000  1.000000  1.000000  1.000000
                       1.000000  1.000000  1.000000  1.000000  1.000000  1.000000
                       1.000000  1.000000  1.000000  1.000000  1.000000  1.000000
                       1.000000  1.000000  1.000000  1.000000  1.000000  1.000000
                       1.000000  1.000000  1.000000  1.000000  1.000000  1.000000
                       1.000000  1.000000  1.000000  1.000000  0.000000  0.000000
                       0.000000  0.000000  0.000000  0.000000  0.000000  0.000000
                       0.000000  0.000000  0.000000  0.000000  0.000000  0.000000
                       0.000000  0.000000  0.000000  0.000000  0.000000
                       1.000000  1.000000  1.000000  1.000000  1.000000  1.000000
                       1.000000  1.000000  1.000000  1.000000  1.000000  1.000000
                       1.000000  1.000000  1.000000  1.000000  1.000000  1.000000
                       1.000000  1.000000  1.000000  1.000000  1.000000  1.000000
                       1.000000  1.000000  1.000000  1.000000  1.000000  1.000000
                       1.000000  1.000000  1.000000  1.000000  1.000000  1.000000
                       1.000000  1.000000  1.000000  1.000000  1.000000  1.000000
                       1.000000  1.000000  1.000000  1.000000  1.000000  1.000000
                       1.000000  1.000000  1.000000  1.000000  1.000000  1.000000
                       1.000000  1.000000  1.000000  1.000000  1.000000  1.000000
                       1.000000  1.000000  1.000000  1.000000  1.000000  1.000000
                       1.000000  1.000000  1.000000  1.000000  0.000000  0.000000
                       0.000000  0.000000  0.000000  0.000000  0.000000  0.000000
                       0.000000  0.000000  0.000000  0.000000  0.000000  0.000000
                       0.000000  0.000000  0.000000  0.000000  0.000000
                       1.000000  1.000000  1.000000  1.000000  1.000000  1.000000
                       1.000000  1.000000  1.000000  1.000000  1.000000  1.000000
                       1.000000  1.000000  1.000000  1.000000  1.000000  1.000000
                       1.000000  1.000000  1.000000  1.000000  1.000000  1.000000
                       1.000000  1.000000  1.000000  1.000000  1.000000  1.000000
                       1.000000  1.000000  1.000000  1.000000  1.000000  1.000000
                       1.000000  1.000000  1.000000  1.000000  1.000000  1.000000
                       1.000000  1.000000  1.000000  1.000000  1.000000  1.000000
                       1.000000  1.000000  1.000000  1.000000  1.000000  1.000000
                       1.000000  1.000000  1.000000  1.000000  1.000000  1.000000
                       1.000000  1.000000  1.000000  1.000000  1.000000  1.000000
                       1.000000  1.000000  1.000000  1.000000  0.000000  0.000000
                       0.000000  0.000000  0.000000  0.000000  0.000000  0.000000
                       0.000000  0.000000  0.000000  0.000000  0.000000  0.000000
                       0.000000  0.000000  0.000000  0.000000  0.000000
                       1.000000  1.000000  1.000000  1.000000  1.000000  1.000000
                       1.000000  1.000000  1.000000  1.000000  1.000000  1.000000
                       1.000000  1.000000  1.000000  1.000000  1.000000  1.000000
                       1.000000  1.000000  1.000000  1.000000  1.000000  1.000000
                       1.000000  1.000000  1.000000  1.000000  1.000000  1.000000
                       1.000000  1.000000  1.000000  1.000000  1.000000  1.000000
                       1.000000  1.000000  1.000000  1.000000  1.000000  1.000000
                       1.000000  1.000000  1.000000  1.000000  1.000000  1.000000
                       1.000000  1.000000  1.000000  1.000000  1.000000  1.000000
                       1.000000  1.000000  1.000000  1.000000  1.000000  1.000000
                       1.000000  1.000000  1.000000  1.000000  1.000000  1.000000
                       1.000000  1.000000  1.000000  1.000000  0.000000  0.000000
                       0.000000  0.000000  0.000000  0.000000  0.000000  0.000000
                       0.000000  0.000000  0.000000  0.000000  0.000000  0.000000
                       0.000000  0.000000  0.000000  0.000000  0.000000
                       1.000000  1.000000  1.000000  1.000000  1.000000  1.000000
                       1.000000  1.000000  1.000000  1.000000  1.000000  1.000000
                       1.000000  1.000000  1.000000  1.000000  1.000000  1.000000
                       1.000000  1.000000  1.000000  1.000000  1.000000  1.000000
                       1.000000  1.000000  1.000000  1.000000  1.000000  1.000000
                       1.000000  1.000000  1.000000  1.000000  1.000000  1.000000
                       1.000000  1.000000  1.000000  1.000000  1.000000  1.000000
                       1.000000  1.000000  1.000000  1.000000  1.000000  1.000000
                       1.000000  1.000000  1.000000  1.000000  1.000000  1.000000
                       1.000000  1.000000  1.000000  1.000000  1.000000  1.000000
                       1.000000  1.000000  1.000000  1.000000  1.000000  1.000000
                       1.000000  1.000000  1.000000  1.000000  0.000000  0.000000
                       0.000000  0.000000  0.000000  0.000000  0.000000  0.000000
                       0.000000  0.000000  0.000000  0.000000  0.000000  0.000000
                       0.000000  0.000000  0.000000  0.000000  0.000000
                       1.000000  1.000000  1.000000  1.000000  1.000000  1.000000
                       1.000000  1.000000  1.000000  1.000000  1.000000  1.000000
                       1.000000  1.000000  1.000000  1.000000  1.000000  1.000000
                       1.000000  1.000000  1.000000  1.000000  1.000000  1.000000
                       1.000000  1.000000  1.000000  1.000000  1.000000  1.000000
                       1.000000  1.000000  1.000000  1.000000  1.000000  1.000000
                       1.000000  1.000000  1.000000  1.000000  1.000000  1.000000
                       1.000000  1.000000  1.000000  1.000000  1.000000  1.000000
                       1.000000  1.000000  1.000000  1.000000  1.000000  1.000000
                       1.000000  1.000000  1.000000  1.000000  1.000000  1.000000
                       1.000000  1.000000  1.000000  1.000000  1.000000  1.000000
                       1.000000  1.000000  1.000000  1.000000  0.000000  0.000000
                       0.000000  0.000000  0.000000  0.000000  0.000000  0.000000
                       0.000000  0.000000  0.000000  0.000000  0.000000  0.000000
                       0.000000  0.000000  0.000000  0.000000  0.000000
                       1.000000  1.000000  1.000000  1.000000  1.000000  1.000000
                       1.000000  1.000000  1.000000  1.000000  1.000000  1.000000
                       1.000000  1.000000  1.000000  1.000000  1.000000  1.000000
                       1.000000  1.000000  1.000000  1.000000  1.000000  1.000000
                       1.000000  1.000000  1.000000  1.000000  1.000000  1.000000
                       1.000000  1.000000  1.000000  1.000000  1.000000  1.000000
                       1.000000  1.000000  1.000000  1.000000  1.000000  1.000000
                       1.000000  1.000000  1.000000  1.000000  1.000000  1.000000
                       1.000000  1.000000  1.000000  1.000000  1.000000  1.000000
                       1.000000  1.000000  1.000000  1.000000  1.000000  1.000000
                       1.000000  1.000000  1.000000  1.000000  1.000000  1.000000
                       1.000000  1.000000  1.000000  1.000000  0.000000  0.000000
                       0.000000  0.000000  0.000000  0.000000  0.000000  0.000000
                       0.000000  0.000000  0.000000  0.000000  0.000000  0.000000
                       0.000000  0.000000  0.000000  0.000000  0.000000
                       1.000000  1.000000  1.000000  1.000000  1.000000  1.000000
                       1.000000  1.000000  1.000000  1.000000  1.000000  1.000000
                       1.000000  1.000000  1.000000  1.000000  1.000000  1.000000
                       1.000000  1.000000  1.000000  1.000000  1.000000  1.000000
                       1.000000  1.000000  1.000000  1.000000  1.000000  1.000000
                       1.000000  1.000000  1.000000  1.000000  1.000000  1.000000
                       1.000000  1.000000  1.000000  1.000000  1.000000  1.000000
                       1.000000  1.000000  1.000000  1.000000  1.000000  1.000000
                       1.000000  1.000000  1.000000  1.000000  1.000000  1.000000
                       1.000000  1.000000  1.000000  1.000000  1.000000  1.000000
                       1.000000  1.000000  1.000000  1.000000  1.000000  1.000000
                       1.000000  1.000000  1.000000  1.000000  0.000000  0.000000
                       0.000000  0.000000  0.000000  0.000000  0.000000  0.000000
                       0.000000  0.000000  0.000000  0.000000  0.000000  0.000000
                       0.000000  0.000000  0.000000  0.000000  0.000000
                       1.000000  1.000000  1.000000  1.000000  1.000000  1.000000
                       1.000000  1.000000  1.000000  1.000000  1.000000  1.000000
                       1.000000  1.000000  1.000000  1.000000  1.000000  1.000000
                       1.000000  1.000000  1.000000  1.000000  1.000000  1.000000
                       1.000000  1.000000  1.000000  1.000000  1.000000  1.000000
                       1.000000  1.000000  1.000000  1.000000  1.000000  1.000000
                       1.000000  1.000000  1.000000  1.000000  1.000000  1.000000
                       1.000000  1.000000  1.000000  1.000000  1.000000  1.000000
                       1.000000  1.000000  1.000000  1.000000  1.000000  1.000000
                       1.000000  1.000000  1.000000  1.000000  1.000000  1.000000
                       1.000000  1.000000  1.000000  1.000000  1.000000  1.000000
                       1.000000  1.000000  1.000000  1.000000  0.000000  0.000000
                       0.000000  0.000000  0.000000  0.000000  0.000000  0.000000
                       0.000000  0.000000  0.000000  0.000000  0.000000  0.000000
                       0.000000  0.000000  0.000000  0.000000  0.000000
                       1.000000  1.000000  1.000000  1.000000  1.000000  1.000000
                       1.000000  1.000000  1.000000  1.000000  1.000000  1.000000
                       1.000000  1.000000  1.000000  1.000000  1.000000  1.000000
                       1.000000  1.000000  1.000000  1.000000  1.000000  1.000000
                       1.000000  1.000000  1.000000  1.000000  1.000000  1.000000
                       1.000000  1.000000  1.000000  1.000000  1.000000  1.000000
                       1.000000  1.000000  1.000000  1.000000  1.000000  1.000000
                       1.000000  1.000000  1.000000  1.000000  1.000000  1.000000
                       1.000000  1.000000  1.000000  1.000000  1.000000  1.000000
                       1.000000  1.000000  1.000000  1.000000  1.000000  1.000000
                       1.000000  1.000000  1.000000  1.000000  1.000000  1.000000
                       1.000000  1.000000  1.000000  1.000000  0.000000  0.000000
                       0.000000  0.000000  0.000000  0.000000  0.000000  0.000000
                       0.000000  0.000000  0.000000  0.000000  0.000000  0.000000
                       0.000000  0.000000  0.000000  0.000000  0.000000
                       1.000000  1.000000  1.000000  1.000000  1.000000  1.000000
                       1.000000  1.000000  1.000000  1.000000  1.000000  1.000000
                       1.000000  1.000000  1.000000  1.000000  1.000000  1.000000
                       1.000000  1.000000  1.000000  1.000000  1.000000  1.000000
                       1.000000  1.000000  1.000000  1.000000  1.000000  1.000000
                       1.000000  1.000000  1.000000  1.000000  1.000000  1.000000
                       1.000000  1.000000  1.000000  1.000000  1.000000  1.000000
                       1.000000  1.000000  1.000000  1.000000  1.000000  1.000000
                       1.000000  1.000000  1.000000  1.000000  1.000000  1.000000
                       1.000000  1.000000  1.000000  1.000000  1.000000  1.000000
                       1.000000  1.000000  1.000000  1.000000  1.000000  1.000000
                       1.000000  1.000000  1.000000  1.000000  0.000000  0.000000
                       0.000000  0.000000  0.000000  0.000000  0.000000  0.000000
                       0.000000  0.000000  0.000000  0.000000  0.000000  0.000000
                       0.000000  0.000000  0.000000  0.000000  0.000000
                       1.000000  1.000000  1.000000  1.000000  1.000000  1.000000
                       1.000000  1.000000  1.000000  1.000000  1.000000  1.000000
                       1.000000  1.000000  1.000000  1.000000  1.000000  1.000000
                       1.000000  1.000000  1.000000  1.000000  1.000000  1.000000
                       1.000000  1.000000  1.000000  1.000000  1.000000  1.000000
                       1.000000  1.000000  1.000000  1.000000  1.000000  1.000000
                       1.000000  1.000000  1.000000  1.000000  1.000000  1.000000
                       1.000000  1.000000  1.000000  1.000000  1.000000  1.000000
                       1.000000  1.000000  1.000000  1.000000  1.000000  1.000000
                       1.000000  1.000000  1.000000  1.000000  1.000000  1.000000
                       1.000000  1.000000  1.000000  1.000000  1.000000  1.000000
                       1.000000  1.000000  1.000000  1.000000  0.000000  0.000000
                       0.000000  0.000000  0.000000  0.000000  0.000000  0.000000
                       0.000000  0.000000  0.000000  0.000000  0.000000  0.000000
                       0.000000  0.000000  0.000000  0.000000  0.000000
                       1.000000  1.000000  1.000000  1.000000  1.000000  1.000000
                       1.000000  1.000000  1.000000  1.000000  1.000000  1.000000
                       1.000000  1.000000  1.000000  1.000000  1.000000  1.000000
                       1.000000  1.000000  1.000000  1.000000  1.000000  1.000000
                       1.000000  1.000000  1.000000  1.000000  1.000000  1.000000
                       1.000000  1.000000  1.000000  1.000000  1.000000  1.000000
                       1.000000  1.000000  1.000000  1.000000  1.000000  1.000000
                       1.000000  1.000000  1.000000  1.000000  1.000000  1.000000
                       1.000000  1.000000  1.000000  1.000000  1.000000  1.000000
                       1.000000  1.000000  1.000000  1.000000  1.000000  1.000000
                       1.000000  1.000000  1.000000  1.000000  1.000000  1.000000
                       1.000000  1.000000  1.000000  1.000000  0.000000  0.000000
                       0.000000  0.000000  0.000000  0.000000  0.000000  0.000000
                       0.000000  0.000000  0.000000  0.000000  0.000000  0.000000
                       0.000000  0.000000  0.000000  0.000000  0.000000
                       1.000000  1.000000  1.000000  1.000000  1.000000  1.000000
                       1.000000  1.000000  1.000000  1.000000  1.000000  1.000000
                       1.000000  1.000000  1.000000  1.000000  1.000000  1.000000
                       1.000000  1.000000  1.000000  1.000000  1.000000  1.000000
                       1.000000  1.000000  1.000000  1.000000  1.000000  1.000000
                       1.000000  1.000000  1.000000  1.000000  1.000000  1.000000
                       1.000000  1.000000  1.000000  1.000000  1.000000  1.000000
                       1.000000  1.000000  1.000000  1.000000  1.000000  1.000000
                       1.000000  1.000000  1.000000  1.000000  1.000000  1.000000
                       1.000000  1.000000  1.000000  1.000000  1.000000  1.000000
                       1.000000  1.000000  1.000000  1.000000  1.000000  1.000000
                       1.000000  1.000000  1.000000  1.000000  0.000000  0.000000
                       0.000000  0.000000  0.000000  0.000000  0.000000  0.000000
                       0.000000  0.000000  0.000000  0.000000  0.000000  0.000000
                       0.000000  0.000000  0.000000  0.000000  0.000000
                       1.000000  1.000000  1.000000  1.000000  1.000000  1.000000
                       1.000000  1.000000  1.000000  1.000000  1.000000  1.000000
                       1.000000  1.000000  1.000000  1.000000  1.000000  1.000000
                       1.000000  1.000000  1.000000  1.000000  1.000000  1.000000
                       1.000000  1.000000  1.000000  1.000000  1.000000  1.000000
                       1.000000  1.000000  1.000000  1.000000  1.000000  1.000000
                       1.000000  1.000000  1.000000  1.000000  1.000000  1.000000
                       1.000000  1.000000  1.000000  1.000000  1.000000  1.000000
                       1.000000  1.000000  1.000000  1.000000  1.000000  1.000000
                       1.000000  1.000000  1.000000  1.000000  1.000000  1.000000
                       1.000000  1.000000  1.000000  1.000000  1.000000  1.000000
                       1.000000  1.000000  1.000000  1.000000  0.000000  0.000000
                       0.000000  0.000000  0.000000  0.000000  0.000000  0.000000
                       0.000000  0.000000  0.000000  0.000000  0.000000  0.000000
                       0.000000  0.000000  0.000000  0.000000  0.000000
                       1.000000  1.000000  1.000000  1.000000  1.000000  1.000000
                       1.000000  1.000000  1.000000  1.000000  1.000000  1.000000
                       1.000000  1.000000  1.000000  1.000000  1.000000  1.000000
                       1.000000  1.000000  1.000000  1.000000  1.000000  1.000000
                       1.000000  1.000000  1.000000  1.000000  1.000000  1.000000
                       1.000000  1.000000  1.000000  1.000000  1.000000  1.000000
                       1.000000  1.000000  1.000000  1.000000  1.000000  1.000000
                       1.000000  1.000000  1.000000  1.000000  1.000000  1.000000
                       1.000000  1.000000  1.000000  1.000000  1.000000  1.000000
                       1.000000  1.000000  1.000000  1.000000  1.000000  1.000000
                       1.000000  1.000000  1.000000  1.000000  1.000000  1.000000
                       1.000000  1.000000  1.000000  1.000000  0.000000  0.000000
                       0.000000  0.000000  0.000000  0.000000  0.000000  0.000000
                       0.000000  0.000000  0.000000  0.000000  0.000000  0.000000
                       0.000000  0.000000  0.000000  0.000000  0.000000
                       1.000000  1.000000  1.000000  1.000000  1.000000  1.000000
                       1.000000  1.000000  1.000000  1.000000  1.000000  1.000000
                       1.000000  1.000000  1.000000  1.000000  1.000000  1.000000
                       1.000000  1.000000  1.000000  1.000000  1.000000  1.000000
                       1.000000  1.000000  1.000000  1.000000  1.000000  1.000000
                       1.000000  1.000000  1.000000  1.000000  1.000000  1.000000
                       1.000000  1.000000  1.000000  1.000000  1.000000  1.000000
                       1.000000  1.000000  1.000000  1.000000  1.000000  1.000000
                       1.000000  1.000000  1.000000  1.000000  1.000000  1.000000
                       1.000000  1.000000  1.000000  1.000000  1.000000  1.000000
                       1.000000  1.000000  1.000000  1.000000  1.000000  1.000000
                       1.000000  1.000000  1.000000  1.000000  0.000000  0.000000
                       0.000000  0.000000  0.000000  0.000000  0.000000  0.000000
                       0.000000  0.000000  0.000000  0.000000  0.000000  0.000000
                       0.000000  0.000000  0.000000  0.000000  0.000000
                       1.000000  1.000000  1.000000  1.000000  1.000000  1.000000
                       1.000000  1.000000  1.000000  1.000000  1.000000  1.000000
                       1.000000  1.000000  1.000000  1.000000  1.000000  1.000000
                       1.000000  1.000000  1.000000  1.000000  1.000000  1.000000
                       1.000000  1.000000  1.000000  1.000000  1.000000  1.000000
                       1.000000  1.000000  1.000000  1.000000  1.000000  1.000000
                       1.000000  1.000000  1.000000  1.000000  1.000000  1.000000
                       1.000000  1.000000  1.000000  1.000000  1.000000  1.000000
                       1.000000  1.000000  1.000000  1.000000  1.000000  1.000000
                       1.000000  1.000000  1.000000  1.000000  1.000000  1.000000
                       1.000000  1.000000  1.000000  1.000000  1.000000  1.000000
                       1.000000  1.000000  1.000000  1.000000  0.000000  0.000000
                       0.000000  0.000000  0.000000  0.000000  0.000000  0.000000
                       0.000000  0.000000  0.000000  0.000000  0.000000  0.000000
                       0.000000  0.000000  0.000000  0.000000  0.000000
                       1.000000  1.000000  1.000000  1.000000  1.000000  1.000000
                       1.000000  1.000000  1.000000  1.000000  1.000000  1.000000
                       1.000000  1.000000  1.000000  1.000000  1.000000  1.000000
                       1.000000  1.000000  1.000000  1.000000  1.000000  1.000000
                       1.000000  1.000000  1.000000  1.000000  1.000000  1.000000
                       1.000000  1.000000  1.000000  1.000000  1.000000  1.000000
                       1.000000  1.000000  1.000000  1.000000  1.000000  1.000000
                       1.000000  1.000000  1.000000  1.000000  1.000000  1.000000
                       1.000000  1.000000  1.000000  1.000000  1.000000  1.000000
                       1.000000  1.000000  1.000000  1.000000  1.000000  1.000000
                       1.000000  1.000000  1.000000  1.000000  1.000000  1.000000
                       1.000000  1.000000  1.000000  1.000000  0.000000  0.000000
                       0.000000  0.000000  0.000000  0.000000  0.000000  0.000000
                       0.000000  0.000000  0.000000  0.000000  0.000000  0.000000
                       0.000000  0.000000  0.000000  0.000000  0.000000
           occopt           7
          optcell           6
        pawecutdg      4.00000000E+01 Hartree
          pawovlp      1.0000000000E+01
          spgroup           1
          strfact      2.00000000E+02
           tolvrs      1.00000000E-06
            typat      2  2  1  1  1  1  1  1  1  1  1  1  1  1  1  1  1  1  1  1
                       1  1  1  1  1  1  1  1  1  1  1  1  1  1  1  1  2  2
           useylm           1
              wtk        0.05000    0.10000    0.10000    0.10000    0.10000    0.10000
                         0.10000    0.10000    0.10000    0.10000    0.05000
           xangst     -1.2200000000E-06 -1.0866956360E+01  2.1774708000E-01
                       8.6800000000E-06 -1.0867568460E+01  2.6414343400E+00
                       2.2300000000E-06 -9.9010675500E+00  7.3929255000E-01
                       3.8400000000E-06 -9.9012995300E+00  2.1208383100E+00
                       3.1700000000E-06 -8.6873058800E+00 -2.1003300000E-03
                       2.6700000000E-06 -8.6874467500E+00  2.8625696300E+00
                       3.4800000000E-06 -7.4477574200E+00  7.1145271000E-01
                       3.4800000000E-06 -7.4477650000E+00  2.1494396400E+00
                       7.6700000000E-06 -6.2020685000E+00 -8.7268900000E-03
                       7.2300000000E-06 -6.2017756400E+00  2.8691458400E+00
                       4.1500000000E-06 -4.9623569400E+00  7.1112253000E-01
                       3.4400000000E-06 -4.9621880600E+00  2.1486465000E+00
                       5.6300000000E-06 -3.7230597700E+00 -6.6440500000E-03
                       2.8400000000E-06 -3.7227976800E+00  2.8661980000E+00
                       6.3600000000E-06 -2.4811705200E+00  7.1276016000E-01
                       3.3200000000E-06 -2.4808645700E+00  2.1469609100E+00
                       8.8600000000E-06 -1.2404122600E+00 -6.8533100000E-03
                       6.7800000000E-06 -1.2402334600E+00  2.8666514900E+00
                       1.1630000000E-05  1.9900000000E-06  7.1184634000E-01
                       1.1610000000E-05  2.6100000000E-06  2.1477543700E+00
                       9.8400000000E-06  1.2404156000E+00 -6.8539400000E-03
                       8.8700000000E-06  1.2402388400E+00  2.8666527600E+00
                       5.6800000000E-06  2.4811708400E+00  7.1275967000E-01
                       3.3000000000E-06  2.4808669200E+00  2.1469601200E+00
                      -8.5000000000E-07  3.7230583800E+00 -6.6462700000E-03
                      -2.4400000000E-06  3.7228000300E+00  2.8661966900E+00
                      -5.3600000000E-06  4.9623560800E+00  7.1112059000E-01
                      -3.5500000000E-06  4.9621924500E+00  2.1486448600E+00
                      -1.5800000000E-06  6.2020683800E+00 -8.7269100000E-03
                      -5.7000000000E-07  6.2017845300E+00  2.8691440200E+00
                       2.5200000000E-06  7.4477585900E+00  7.1145391000E-01
                       7.0200000000E-06  7.4477736300E+00  2.1494417000E+00
                       7.4100000000E-06  8.6874548500E+00  2.8625710100E+00
                       6.7200000000E-06  8.6873039500E+00 -2.1019600000E-03
                       4.6300000000E-06  9.9010661000E+00  7.3929188000E-01
                       3.3100000000E-06  9.9012969700E+00  2.1208336100E+00
                       1.0500000000E-06  1.0866954630E+01  2.1775199000E-01
                      -5.4200000000E-06  1.0867560870E+01  2.6414357800E+00
            xcart     -2.3054658821E-06 -2.0535571418E+01  4.1148234744E-01
                       1.6402822833E-05 -2.0536728120E+01  4.9915875006E+00
                       4.2140892763E-06 -1.8710306093E+01  1.3970604516E+00
                       7.2565483503E-06 -1.8710744471E+01  4.0078035780E+00
                       5.9904318412E-06 -1.6416628946E+01 -3.9690484887E-03
                       5.0455687748E-06 -1.6416895152E+01  5.4094726370E+00
                       6.5762469424E-06 -1.4074221828E+01  1.3444507784E+00
                       6.5762469424E-06 -1.4074236152E+01  4.0618522588E+00
                       1.4494199439E-05 -1.1720210922E+01 -1.6491432092E-02
                       1.3662719941E-05 -1.1719657497E+01  5.4218998729E+00
                       7.8423634515E-06 -9.3774955902E+00  1.3438268286E+00
                       6.5006578971E-06 -9.3771764533E+00  4.0603534414E+00
                       1.0639158128E-05 -7.0355633417E+00 -1.2555434913E-02
                       5.3668222174E-06 -7.0350680633E+00  5.4163292626E+00
                       1.2018658205E-05 -4.6887327718E+00  1.3469215008E+00
                       6.2738907612E-06 -4.6881546101E+00  4.0571681379E+00
                       1.6742973537E-05 -2.3440394633E+00 -1.2950879004E-02
                       1.2812343181E-05 -2.3437015802E+00  5.4171862345E+00
                       2.1977514925E-05  3.7605550044E-06  1.3451946313E+00
                       2.1939720403E-05  4.9321852068E-06  4.0586675600E+00
                       1.8594905148E-05  2.3440457750E+00 -1.2952069531E-02
                       1.6761870799E-05  2.3437117470E+00  5.4171886345E+00
                       1.0733644435E-05  4.6887333765E+00  1.3469205749E+00
                       6.2360962385E-06  4.6881590509E+00  4.0571666450E+00
                      -1.6062672130E-06  7.0355607149E+00 -1.2559630105E-02
                      -4.6109317642E-06  7.0350725042E+00  5.4163267871E+00
                      -1.0128932072E-05  9.3774939651E+00  1.3438231626E+00
                      -6.7085277717E-06  9.3771847492E+00  4.0603503422E+00
                      -2.9857672900E-06  1.1720210696E+01 -1.6491469886E-02
                      -1.0771438957E-06  1.1719674297E+01  5.4218964336E+00
                       4.7621098549E-06  1.4074224039E+01  1.3444530461E+00
                       1.3265877453E-05  1.4074252460E+01  4.0618561516E+00
                       1.4002870645E-05  1.6416910458E+01  5.4094752448E+00
                       1.2698959613E-05  1.6416625299E+01 -3.9721287423E-03
                       8.7494319953E-06  1.8710303353E+01  1.3970591855E+00
                       6.2549934999E-06  1.8710739634E+01  4.0077946963E+00
                       1.9842124395E-06  2.0535568149E+01  4.1149162599E-01
                      -1.0242315640E-05  2.0536713777E+01  4.9915902218E+00
             xred     -8.1333333290E-08 -3.1048446743E-01  5.0342991225E-02
                       5.7866666670E-07 -3.1050195600E-01  6.1069799788E-01
                       1.4866666670E-07 -2.8288764429E-01  1.7092398372E-01
                       2.5600000003E-07 -2.8289427229E-01  4.9033651533E-01
                       2.1133333337E-07 -2.4820873943E-01 -4.8559500665E-04
                       1.7800000002E-07 -2.4821276429E-01  6.6182434118E-01
                       2.3200000003E-07 -2.1279306914E-01  1.6448742980E-01
                       2.3200000002E-07 -2.1279328571E-01  4.9694912527E-01
                       5.1133333336E-07 -1.7720195714E-01 -2.0176516107E-03
                       4.8200000001E-07 -1.7719358971E-01  6.6334475690E-01
                       2.7666666668E-07 -1.4178162686E-01  1.6441109239E-01
                       2.2933333334E-07 -1.4177680171E-01  4.9676575179E-01
                       3.7533333335E-07 -1.0637313629E-01 -1.5361002813E-03
                       1.8933333334E-07 -1.0636564800E-01  6.6266321810E-01
                       4.2400000001E-07 -7.0890586286E-02  1.6478971144E-01
                       2.2133333333E-07 -7.0881844857E-02  4.9637604441E-01
                       5.9066666667E-07 -3.5440350286E-02 -1.5844810649E-03
                       4.5199999999E-07 -3.5435241714E-02  6.6276806471E-01
                       7.7533333333E-07  5.6857142856E-08  1.6457843682E-01
                       7.7399999999E-07  7.4571428568E-08  4.9655949188E-01
                       6.5599999999E-07  3.5440445714E-02 -1.5846267205E-03
                       5.9133333332E-07  3.5435395429E-02  6.6276835833E-01
                       3.7866666665E-07  7.0890595429E-02  1.6478959815E-01
                       2.1999999998E-07  7.0881912000E-02  4.9637586177E-01
                      -5.6666666682E-08  1.0637309657E-01 -1.5366135440E-03
                      -1.6266666669E-07  1.0636571514E-01  6.6266291523E-01
                      -3.5733333336E-07  1.4178160229E-01  1.6441064386E-01
                      -2.3666666670E-07  1.4177692714E-01  4.9676537262E-01
                      -1.0533333336E-07  1.7720195371E-01 -2.0176562347E-03
                      -3.8000000037E-08  1.7719384371E-01  6.6334433611E-01
                       1.6799999997E-07  2.1279310257E-01  1.6448770724E-01
                       4.6799999996E-07  2.1279353229E-01  4.9694960154E-01
                       4.9399999995E-07  2.4821299571E-01  6.6182466024E-01
                       4.4799999996E-07  2.4820868429E-01 -4.8597186165E-04
                       3.0866666662E-07  2.8288760286E-01  1.7092382882E-01
                       2.2066666662E-07  2.8289419914E-01  4.9033542869E-01
                       6.9999999955E-08  3.1048441800E-01  5.0344126414E-02
                      -3.6133333339E-07  3.1050173914E-01  6.1069833081E-01
            znucl        6.00000    1.00000

================================================================================

 chkinp: Checking input parameters for consistency.

================================================================================
== DATASET  1 ==================================================================
-   nproc =    1

 Exchange-correlation functional for the present dataset will be:
  GGA: Perdew-Burke-Ernzerhof functional - ixc=11
 Citation for XC functional:
  J.P.Perdew, K.Burke, M.Ernzerhof, PRL 77, 3865 (1996)

 Real(R)+Recip(G) space primitive vectors, cartesian coordinates (Bohr,Bohr^-1):
 R(1)= 28.3458920  0.0000000  0.0000000  G(1)=  0.0352785  0.0000000  0.0000000
 R(2)=  0.0000000 66.1404147  0.0000000  G(2)=  0.0000000  0.0151193  0.0000000
 R(3)=  0.0000000  0.0000000  8.1735776  G(3)=  0.0000000  0.0000000  0.1223454
 Unit cell volume ucvol=  1.5323897E+04 bohr^3
 Angles (23,13,12)=  9.00000000E+01  9.00000000E+01  9.00000000E+01 degrees

 Coarse grid specifications (used for wave-functions):

 getcut: wavevector=  0.0000  0.0000  0.0000  ngfft= 120 270  32
         ecut(hartree)=     18.515   => boxcut(ratio)=   2.02121

 Fine grid specifications (used for densities):

 getcut: wavevector=  0.0000  0.0000  0.0000  ngfft= 192 450  54
         ecut(hartree)=     52.900   => boxcut(ratio)=   2.01785

--- Pseudopotential description ------------------------------------------------
- pspini: atom type   1  psp file is 6c-gga-uspp.paw
- pspatm: opening atomic psp file    6c-gga-uspp.paw
- C  (US d-loc) - PAW data extracted from US-psp (D.Vanderbilt) - generated by USpp2Abinit v2.1.4
-  6.00000   4.00000  20070502                znucl, zion, pspdat
    7   11    1    0       560   0.00000      pspcod,pspxc,lmax,lloc,mmax,r2well
 Pseudopotential format is: paw3
 basis_size (lnmax)=  4 (lmn_size=  8), orbitals=   0   0   1   1
 Spheres core radius: rc_sph= 1.55500091
 4 radial meshes are used:
  - mesh 1: r(i)=AA*[exp(BB*(i-1))-1], size= 560 , AA= 0.15198E-03 BB= 0.16667E-01
  - mesh 2: r(i)=AA*[exp(BB*(i-1))-1], size= 556 , AA= 0.15198E-03 BB= 0.16667E-01
  - mesh 3: r(i)=AA*[exp(BB*(i-1))-1], size= 576 , AA= 0.15198E-03 BB= 0.16667E-01
  - mesh 4: r(i)=AA*[exp(BB*(i-1))-1], size= 666 , AA= 0.15198E-03 BB= 0.16667E-01
 Shapefunction is BESSEL type: shapef(r,l)=aa(1,l)*jl(q(1,l)*r)+aa(2,l)*jl(q(2,l)*r)
 Radius for shape functions = sphere core radius
 Radial grid used for partial waves is grid 1
 Radial grid used for projectors is grid  2
 Radial grid used for (t)core density is grid 3
 Radial grid used for Vloc is grid 4
 Compensation charge density is taken into account in XC energy/potential
 pspatm: atomic psp has been read  and splines computed

- pspini: atom type   2  psp file is 1h-gga-uspp.paw
- pspatm: opening atomic psp file    1h-gga-uspp.paw
- hydrogen - PAW data extracted from US-psp (D.Vanderbilt) - generated by USpp2Abinit v2.1.4
-  1.00000   1.00000  20070502                znucl, zion, pspdat
    7   11    0    0       354   0.00000      pspcod,pspxc,lmax,lloc,mmax,r2well
 Pseudopotential format is: paw3
 basis_size (lnmax)=  2 (lmn_size=  2), orbitals=   0   0
 Spheres core radius: rc_sph= 0.90082634
 3 radial meshes are used:
  - mesh 1: r(i)=AA*[exp(BB*(i-1))-1], size= 354 , AA= 0.24788E-02 BB= 0.16949E-01
  - mesh 2: r(i)=AA*[exp(BB*(i-1))-1], size= 350 , AA= 0.24788E-02 BB= 0.16949E-01
  - mesh 3: r(i)=AA*[exp(BB*(i-1))-1], size= 490 , AA= 0.24788E-02 BB= 0.16949E-01
 Shapefunction is BESSEL type: shapef(r,l)=aa(1,l)*jl(q(1,l)*r)+aa(2,l)*jl(q(2,l)*r)
 Radius for shape functions = sphere core radius
 Radial grid used for partial waves is grid 1
 Radial grid used for projectors is grid  2
 Radial grid used for (t)core density is grid 1
 Radial grid used for Vloc is grid 3
 Compensation charge density is taken into account in XC energy/potential
 pspatm: atomic psp has been read  and splines computed

   2.09978930E+04                                ecore*ucvol(ha*bohr**3)
--------------------------------------------------------------------------------

_setup2: Arith. and geom. avg. npw (full set) are   58320.750   58320.711

================================================================================

=== [ionmov= 2] Broyden-Fletcher-Goldfard-Shanno method (forces)            
================================================================================

--- Iteration: ( 1/80) Internal Cycle: (1/1)
--------------------------------------------------------------------------------

---SELF-CONSISTENT-FIELD CONVERGENCE--------------------------------------------

     iter   Etot(hartree)     deltaE(h) residm    nres2    magn
